      -----------------------------------------------------------      
     |                   =====================                   |     
     |                           x T B                           |     
     |                   =====================                   |     
     |                         S. Grimme                         |     
     |          Mulliken Center for Theoretical Chemistry        |     
     |                    University of Bonn                     |     
      -----------------------------------------------------------      

   * xtb version 6.4.1 (23d549d) compiled by 'conda@3c73975816cd' on 2022-01-07

   xtb is free software: you can redistribute it and/or modify it under
   the terms of the GNU Lesser General Public License as published by
   the Free Software Foundation, either version 3 of the License, or
   (at your option) any later version.
   
   xtb is distributed in the hope that it will be useful,
   but WITHOUT ANY WARRANTY; without even the implied warranty of
   MERCHANTABILITY or FITNESS FOR A PARTICULAR PURPOSE.  See the
   GNU Lesser General Public License for more details.
   
   Cite this work as:
   * C. Bannwarth, E. Caldeweyher, S. Ehlert, A. Hansen, P. Pracht,
     J. Seibert, S. Spicher, S. Grimme, WIREs Comput. Mol. Sci., 2020, 11,
     e01493. DOI: 10.1002/wcms.1493
   
   for GFN2-xTB:
   * C. Bannwarth, S. Ehlert and S. Grimme., J. Chem. Theory Comput., 2019,
     15, 1652-1671. DOI: 10.1021/acs.jctc.8b01176
   for GFN1-xTB:
   * S. Grimme, C. Bannwarth, P. Shushkov, J. Chem. Theory Comput., 2017,
     13, 1989-2009. DOI: 10.1021/acs.jctc.7b00118
   for GFN0-xTB:
   * P. Pracht, E. Caldeweyher, S. Ehlert, S. Grimme, ChemRxiv, 2019, preprint.
     DOI: 10.26434/chemrxiv.8326202.v1
   for GFN-FF:
   * S. Spicher and S. Grimme, Angew. Chem. Int. Ed., 2020, 59, 15665-15673.
     DOI: 10.1002/anie.202004239
   
   for DFT-D4:
   * E. Caldeweyher, C. Bannwarth and S. Grimme, J. Chem. Phys., 2017,
     147, 034112. DOI: 10.1063/1.4993215
   * E. Caldeweyher, S. Ehlert, A. Hansen, H. Neugebauer, S. Spicher,
     C. Bannwarth and S. Grimme, J. Chem. Phys., 2019, 150, 154122.
     DOI: 10.1063/1.5090222
   * E. Caldeweyher, J.-M. Mewes, S. Ehlert and S. Grimme, Phys. Chem. Chem. Phys.
     2020, 22, 8499-8512. DOI: 10.1039/D0CP00502A
   
   for sTDA-xTB:
   * S. Grimme and C. Bannwarth, J. Chem. Phys., 2016, 145, 054103.
     DOI: 10.1063/1.4959605
   
   in the mass-spec context:
   * V. Asgeirsson, C. Bauer and S. Grimme, Chem. Sci., 2017, 8, 4879.
     DOI: 10.1039/c7sc00601b
   * J. Koopman and S. Grimme, ACS Omega 2019, 4, 12, 15120-15133.
     DOI: 10.1021/acsomega.9b02011
   
   for metadynamics refer to:
   * S. Grimme, J. Chem. Theory Comput., 2019, 155, 2847-2862
     DOI: 10.1021/acs.jctc.9b00143
   
   for SPH calculations refer to:
   * S. Spicher and S. Grimme, J. Chem. Theory Comput., 2021, 17, 1701-1714
     DOI: 10.1021/acs.jctc.0c01306
   
   with help from (in alphabetical order)
   P. Atkinson, C. Bannwarth, F. Bohle, G. Brandenburg, E. Caldeweyher
   M. Checinski, S. Dohm, S. Ehlert, S. Ehrlich, I. Gerasimov, J. Koopman
   C. Lavigne, S. Lehtola, F. März, M. Müller, F. Musil, H. Neugebauer
   J. Pisarek, C. Plett, P. Pracht, J. Seibert, P. Shushkov, S. Spicher
   M. Stahn, M. Steiner, T. Strunk, J. Stückrath, T. Rose, and J. Unsleber
   
 * started run on 2022/02/09 at 17:30:04.393     

           -------------------------------------------------
          |                Calculation Setup                |
           -------------------------------------------------

          program call               : /home/maihfly/anaconda3/envs/Cyclodextrins-env-4.0/bin/xtb butane_opt_xtb.xyz --chrg 0 --uhf 0 --opt
          coordinate file            : butane_opt_xtb.xyz
          omp threads                :                     4
          number of atoms            :                    14
          number of electrons        :                    26
          charge                     :                     0
          spin                       :                   0.0
          first test random number   :      0.73449204586735

   ID    Z sym.   atoms
    1    6 C      1-4
    2    1 H      5-14

           -------------------------------------------------
          |                 G F N 2 - x T B                 |
           -------------------------------------------------

        Reference                      10.1021/acs.jctc.8b01176
      * Hamiltonian:
        H0-scaling (s, p, d)           1.850000    2.230000    2.230000
        zeta-weighting                 0.500000
      * Dispersion:
        s8                             2.700000
        a1                             0.520000
        a2                             5.000000
        s9                             5.000000
      * Repulsion:
        kExp                           1.500000    1.000000
        rExp                           1.000000
      * Coulomb:
        alpha                          2.000000
        third order                    shell-resolved
        anisotropic                    true
        a3                             3.000000
        a5                             4.000000
        cn-shift                       1.200000
        cn-exp                         4.000000
        max-rad                        5.000000


          ...................................................
          :                      SETUP                      :
          :.................................................:
          :  # basis functions                  26          :
          :  # atomic orbitals                  26          :
          :  # shells                           18          :
          :  # electrons                        26          :
          :  max. iterations                   250          :
          :  Hamiltonian                  GFN2-xTB          :
          :  restarted?                      false          :
          :  GBSA solvation                  false          :
          :  PC potential                    false          :
          :  electronic temp.          300.0000000     K    :
          :  accuracy                    1.0000000          :
          :  -> integral cutoff          0.2500000E+02      :
          :  -> integral neglect         0.1000000E-07      :
          :  -> SCF convergence          0.1000000E-05 Eh   :
          :  -> wf. convergence          0.1000000E-03 e    :
          :  Broyden damping             0.4000000          :
          ...................................................

 iter      E             dE          RMSdq      gap      omega  full diag
   1    -13.7926533 -0.137927E+02  0.262E+00   13.62       0.0  T
   2    -13.8395230 -0.468697E-01  0.135E+00   13.59       1.0  T
   3    -13.8398754 -0.352429E-03  0.745E-01   13.52       1.0  T
   4    -13.8400169 -0.141449E-03  0.924E-02   13.44       1.0  T
   5    -13.8400180 -0.108814E-05  0.371E-02   13.44       1.0  T
   6    -13.8400189 -0.967386E-06  0.402E-03   13.44       6.6  T
   7    -13.8400189 -0.187533E-07  0.757E-04   13.44      35.3  T
   8    -13.8400189 -0.725743E-09  0.204E-04   13.44     131.0  T

   *** convergence criteria satisfied after 8 iterations ***

         #    Occupation            Energy/Eh            Energy/eV
      -------------------------------------------------------------
         1        2.0000           -0.6211156             -16.9014
       ...           ...                  ...                  ...
         7        2.0000           -0.4858724             -13.2213
         8        2.0000           -0.4692147             -12.7680
         9        2.0000           -0.4570010             -12.4356
        10        2.0000           -0.4493306             -12.2269
        11        2.0000           -0.4256131             -11.5815
        12        2.0000           -0.4208285             -11.4513
        13        2.0000           -0.4152190             -11.2987 (HOMO)
        14                          0.0787922               2.1440 (LUMO)
        15                          0.0842563               2.2927
        16                          0.0994302               2.7056
        17                          0.1097146               2.9855
        18                          0.1331555               3.6233
       ...                                ...                  ...
        26                          0.3234952               8.8028
      -------------------------------------------------------------
                  HL-Gap            0.4940112 Eh           13.4427 eV
             Fermi-level           -0.1682134 Eh           -4.5773 eV

 SCC (total)                   0 d,  0 h,  0 min,  0.005 sec
 SCC setup                      ...        0 min,  0.000 sec (  3.020%)
 Dispersion                     ...        0 min,  0.000 sec (  1.070%)
 classical contributions        ...        0 min,  0.000 sec (  1.018%)
 integral evaluation            ...        0 min,  0.000 sec (  6.112%)
 iterations                     ...        0 min,  0.004 sec ( 67.913%)
 molecular gradient             ...        0 min,  0.001 sec ( 18.408%)
 printout                       ...        0 min,  0.000 sec (  2.272%)

         :::::::::::::::::::::::::::::::::::::::::::::::::::::
         ::                     SUMMARY                     ::
         :::::::::::::::::::::::::::::::::::::::::::::::::::::
         :: total energy             -13.650243301158 Eh    ::
         :: gradient norm              0.087580090145 Eh/a0 ::
         :: HOMO-LUMO gap             13.442728390934 eV    ::
         ::.................................................::
         :: SCC energy               -13.840018946147 Eh    ::
         :: -> isotropic ES            0.002483151162 Eh    ::
         :: -> anisotropic ES          0.005645716703 Eh    ::
         :: -> anisotropic XC          0.010014172259 Eh    ::
         :: -> dispersion             -0.006351983647 Eh    ::
         :: repulsion energy           0.189768396381 Eh    ::
         :: add. restraining           0.000000000000 Eh    ::
         :: total charge               0.000000000000 e     ::
         :::::::::::::::::::::::::::::::::::::::::::::::::::::

      ----------------------------------------------------------- 
     |                   =====================                   |
     |                        A N C O P T                        |
     |                   =====================                   |
     |               Approximate Normal Coordinate               |
     |                Rational Function Optimizer                |
      ----------------------------------------------------------- 

          ...................................................
          :                      SETUP                      :
          :.................................................:
          :   optimization level            normal          :
          :   max. optcycles                   200          :
          :   ANC micro-cycles                  20          :
          :   degrees of freedom                36          :
          :.................................................:
          :   RF solver                   davidson          :
          :   write xtbopt.log                true          :
          :   linear?                        false          :
          :   energy convergence         0.5000000E-05 Eh   :
          :   grad. convergence          0.1000000E-02 Eh/α :
          :   maximium RF displ.         1.0000000          :
          :   Hlow (freq-cutoff)         0.1000000E-01      :
          :   Hmax (freq-cutoff)         5.0000000          :
          :   S6 in model hess.         20.0000000          :
          ...................................................

generating ANC from model Hessian ...
Using Lindh-Hessian (1995)
 Shifting diagonal of input Hessian by    5.7738951662004816E-003
 Lowest  eigenvalues of input Hessian
    0.000000    0.000000    0.000000    0.000000    0.000000    0.000000
    0.010000    0.012032    0.013255    0.020002    0.025871    0.044383
    0.050004    0.055266    0.056907    0.057975    0.061890    0.066136
 Highest eigenvalues
    1.059406    1.060919    1.119341    1.211750    1.284020    1.339134


........................................................................
.............................. CYCLE    1 ..............................
........................................................................
   1    -13.8400189 -0.138400E+02  0.949E-05   13.44       0.0  T
   2    -13.8400189 -0.455103E-11  0.550E-05   13.44     485.8  T
   3    -13.8400189 -0.976996E-13  0.125E-05   13.44    2130.0  T
     SCC iter.                  ...        0 min,  0.001 sec
     gradient                   ...        0 min,  0.001 sec
 * total energy  :   -13.6502433 Eh     change       -0.3098144E-10 Eh
   gradient norm :     0.0875798 Eh/α   predicted     0.0000000E+00 (-100.00%)
   displ. norm   :     0.2901363 α      lambda       -0.1369948E-01
   maximum displ.:     0.1352365 α      in ANC's #5, #14, #18, ...

........................................................................
.............................. CYCLE    2 ..............................
........................................................................
   1    -13.8622682 -0.138623E+02  0.378E-01   13.83       0.0  T
   2    -13.8623440 -0.757823E-04  0.221E-01   13.84       1.0  T
   3    -13.8623463 -0.226179E-05  0.335E-02   13.84       1.0  T
   4    -13.8623469 -0.645594E-06  0.666E-03   13.84       4.0  T
   5    -13.8623470 -0.485461E-07  0.348E-03   13.84       7.7  T
   6    -13.8623470 -0.807097E-08  0.501E-04   13.84      53.4  T
   7    -13.8623470 -0.220419E-09  0.115E-04   13.84     232.1  T
     SCC iter.                  ...        0 min,  0.002 sec
     gradient                   ...        0 min,  0.001 sec
 * total energy  :   -13.6586385 Eh     change       -0.8395176E-02 Eh
   gradient norm :     0.0302353 Eh/α   predicted    -0.7426344E-02 ( -11.54%)
   displ. norm   :     0.2029264 α      lambda       -0.2175476E-02
   maximum displ.:     0.1548546 α      in ANC's #5, #1, #4, ...

........................................................................
.............................. CYCLE    3 ..............................
........................................................................
   1    -13.8704451 -0.138704E+02  0.108E-01   13.94       0.0  T
   2    -13.8704601 -0.150695E-04  0.613E-02   13.94       1.0  T
   3    -13.8704604 -0.252533E-06  0.172E-02   13.94       1.6  T
   4    -13.8704604 -0.172135E-07  0.204E-03   13.94      13.1  T
   5    -13.8704604 -0.209269E-08  0.581E-04   13.94      46.0  T
   6    -13.8704604 -0.335149E-09  0.180E-04   13.94     148.4  T
     SCC iter.                  ...        0 min,  0.001 sec
     gradient                   ...        0 min,  0.001 sec
 * total energy  :   -13.6599239 Eh     change       -0.1285408E-02 Eh
   gradient norm :     0.0061400 Eh/α   predicted    -0.1132530E-02 ( -11.89%)
   displ. norm   :     0.1622352 α      lambda       -0.4156256E-03
   maximum displ.:     0.1021655 α      in ANC's #5, #1, #3, ...

........................................................................
.............................. CYCLE    4 ..............................
........................................................................
   1    -13.8704670 -0.138705E+02  0.543E-02   13.93       0.0  T
   2    -13.8704676 -0.552243E-06  0.322E-02   13.93       1.0  T
   3    -13.8704676 -0.479936E-07  0.309E-03   13.93       8.7  T
   4    -13.8704677 -0.317979E-07  0.112E-03   13.93      23.9  T
   5    -13.8704677 -0.108631E-08  0.310E-04   13.93      86.2  T
   6    -13.8704677 -0.340723E-10  0.931E-05   13.93     287.2  T
     SCC iter.                  ...        0 min,  0.001 sec
     gradient                   ...        0 min,  0.001 sec
 * total energy  :   -13.6602568 Eh     change       -0.3328667E-03 Eh
   gradient norm :     0.0059621 Eh/α   predicted    -0.2132827E-03 ( -35.93%)
   displ. norm   :     0.3965895 α      lambda       -0.7239885E-03
   maximum displ.:     0.2519815 α      in ANC's #3, #5, #1, ...

........................................................................
.............................. CYCLE    5 ..............................
........................................................................
   1    -13.8682583 -0.138683E+02  0.121E-01   13.92       0.0  T
   2    -13.8682603 -0.204546E-05  0.718E-02   13.92       1.0  T
   3    -13.8682605 -0.182071E-06  0.638E-03   13.92       4.2  T
   4    -13.8682606 -0.129103E-06  0.227E-03   13.92      11.8  T
   5    -13.8682606 -0.244616E-08  0.673E-04   13.92      39.7  T
   6    -13.8682606 -0.261718E-09  0.161E-04   13.92     166.2  T
     SCC iter.                  ...        0 min,  0.001 sec
     gradient                   ...        0 min,  0.001 sec
 * total energy  :   -13.6608132 Eh     change       -0.5564271E-03 Eh
   gradient norm :     0.0102192 Eh/α   predicted    -0.4189359E-03 ( -24.71%)
   displ. norm   :     0.4889962 α      lambda       -0.7373318E-03
   maximum displ.:     0.3457691 α      in ANC's #3, #1, #5, ...

........................................................................
.............................. CYCLE    6 ..............................
........................................................................
   1    -13.8636414 -0.138636E+02  0.146E-01   13.87       0.0  T
   2    -13.8636473 -0.595271E-05  0.861E-02   13.87       1.0  T
   3    -13.8636476 -0.275077E-06  0.110E-02   13.87       2.4  T
   4    -13.8636478 -0.203982E-06  0.274E-03   13.87       9.8  T
   5    -13.8636478 -0.325220E-08  0.134E-03   13.87      19.9  T
   6    -13.8636478 -0.735216E-09  0.143E-04   13.87     186.5  T
   7    -13.8636478 -0.152465E-10  0.621E-05   13.87     430.6  T
     SCC iter.                  ...        0 min,  0.002 sec
     gradient                   ...        0 min,  0.001 sec
 * total energy  :   -13.6612292 Eh     change       -0.4160514E-03 Eh
   gradient norm :     0.0183915 Eh/α   predicted    -0.4568312E-03 (   9.80%)
   displ. norm   :     0.1555083 α      lambda       -0.7210094E-03
   maximum displ.:     0.1080734 α      in ANC's #3, #1, #2, ...

........................................................................
.............................. CYCLE    7 ..............................
........................................................................
   1    -13.8676506 -0.138677E+02  0.569E-02   13.95       0.0  T
   2    -13.8676517 -0.105879E-05  0.334E-02   13.95       1.0  T
   3    -13.8676518 -0.896048E-07  0.481E-03   13.95       5.6  T
   4    -13.8676518 -0.514031E-07  0.158E-03   13.95      16.9  T
   5    -13.8676518 -0.894868E-09  0.624E-04   13.95      42.8  T
   6    -13.8676518 -0.173385E-09  0.837E-05   13.95     319.4  T
     SCC iter.                  ...        0 min,  0.001 sec
     gradient                   ...        0 min,  0.001 sec
 * total energy  :   -13.6618228 Eh     change       -0.5935693E-03 Eh
   gradient norm :     0.0129318 Eh/α   predicted    -0.3692217E-03 ( -37.80%)
   displ. norm   :     0.4375313 α      lambda       -0.1189705E-02
   maximum displ.:     0.3142011 α      in ANC's #3, #1, #4, ...

........................................................................
.............................. CYCLE    8 ..............................
........................................................................
   1    -13.8698544 -0.138699E+02  0.139E-01   14.05       0.0  T
   2    -13.8698553 -0.917513E-06  0.827E-02   14.05       1.0  T
   3    -13.8698555 -0.216210E-06  0.382E-03   14.05       7.0  T
   4    -13.8698555 -0.323205E-07  0.202E-03   14.05      13.3  T
   5    -13.8698555 -0.180509E-08  0.473E-04   14.05      56.5  T
   6    -13.8698555 -0.791314E-10  0.117E-04   14.05     228.2  T
     SCC iter.                  ...        0 min,  0.002 sec
     gradient                   ...        0 min,  0.001 sec
 * total energy  :   -13.6626716 Eh     change       -0.8488354E-03 Eh
   gradient norm :     0.0092111 Eh/α   predicted    -0.7087287E-03 ( -16.51%)
   displ. norm   :     0.3145141 α      lambda       -0.6168641E-03
   maximum displ.:     0.2065195 α      in ANC's #3, #2, #1, ...

........................................................................
.............................. CYCLE    9 ..............................
........................................................................
   1    -13.8724877 -0.138725E+02  0.953E-02   14.09       0.0  T
   2    -13.8724885 -0.754165E-06  0.568E-02   14.09       1.0  T
   3    -13.8724886 -0.133041E-06  0.326E-03   14.09       8.2  T
   4    -13.8724886 -0.143438E-07  0.160E-03   14.09      16.7  T
   5    -13.8724886 -0.940270E-09  0.335E-04   14.09      79.7  T
   6    -13.8724886 -0.188631E-09  0.117E-04   14.09     229.3  T
     SCC iter.                  ...        0 min,  0.002 sec
     gradient                   ...        0 min,  0.001 sec
 * total energy  :   -13.6631029 Eh     change       -0.4312629E-03 Eh
   gradient norm :     0.0087330 Eh/α   predicted    -0.3389425E-03 ( -21.41%)
   displ. norm   :     0.3418300 α      lambda       -0.4595855E-03
   maximum displ.:     0.2461115 α      in ANC's #3, #1, #2, ...

........................................................................
.............................. CYCLE   10 ..............................
........................................................................
   1    -13.8709844 -0.138710E+02  0.102E-01   14.09       0.0  T
   2    -13.8709872 -0.274678E-05  0.601E-02   14.09       1.0  T
   3    -13.8709873 -0.161841E-06  0.778E-03   14.09       3.4  T
   4    -13.8709874 -0.110788E-06  0.216E-03   14.09      12.4  T
   5    -13.8709874 -0.257744E-08  0.914E-04   14.09      29.2  T
   6    -13.8709874 -0.756017E-09  0.150E-04   14.09     178.5  T
     SCC iter.                  ...        0 min,  0.003 sec
     gradient                   ...        0 min,  0.001 sec
 * total energy  :   -13.6633288 Eh     change       -0.2259124E-03 Eh
   gradient norm :     0.0096160 Eh/α   predicted    -0.2566429E-03 (  13.60%)
   displ. norm   :     0.1724413 α      lambda       -0.4650782E-03
   maximum displ.:     0.1171065 α      in ANC's #2, #3, #24, ...

........................................................................
.............................. CYCLE   11 ..............................
........................................................................
   1    -13.8786306 -0.138786E+02  0.803E-02   14.16       0.0  T
   2    -13.8786372 -0.663632E-05  0.448E-02   14.16       1.0  T
   3    -13.8786375 -0.256950E-06  0.119E-02   14.16       2.3  T
   4    -13.8786375 -0.289119E-07  0.222E-03   14.16      12.0  T
   5    -13.8786375 -0.120941E-08  0.995E-04   14.16      26.9  T
   6    -13.8786375 -0.564865E-09  0.110E-04   14.16     243.6  T
     SCC iter.                  ...        0 min,  0.005 sec
     gradient                   ...        0 min,  0.001 sec
 * total energy  :   -13.6634560 Eh     change       -0.1272137E-03 Eh
   gradient norm :     0.0092770 Eh/α   predicted    -0.2394542E-03 (  88.23%)
   displ. norm   :     0.4510197 α      lambda       -0.6767857E-03
   maximum displ.:     0.2936117 α      in ANC's #3, #2, #5, ...

........................................................................
.............................. CYCLE   12 ..............................
........................................................................
   1    -13.8670975 -0.138671E+02  0.201E-01   13.94       0.0  T
   2    -13.8671449 -0.474752E-04  0.110E-01   13.94       1.0  T
   3    -13.8671470 -0.203485E-05  0.369E-02   13.94       1.0  T
   4    -13.8671478 -0.846382E-06  0.689E-03   13.94       3.9  T
   5    -13.8671478 -0.132598E-07  0.325E-03   13.94       8.2  T
   6    -13.8671478 -0.601916E-08  0.312E-04   13.94      85.6  T
   7    -13.8671478 -0.143343E-09  0.140E-04   13.94     190.7  T
     SCC iter.                  ...        0 min,  0.002 sec
     gradient                   ...        0 min,  0.001 sec
 * total energy  :   -13.6622413 Eh     change        0.1214709E-02 Eh
   gradient norm :     0.0304454 Eh/α   predicted    -0.4072278E-03 (-133.52%)
   displ. norm   :     0.2770190 α      lambda       -0.2941453E-02
   maximum displ.:     0.1858483 α      in ANC's #2, #3, #4, ...

........................................................................
.............................. CYCLE   13 ..............................
........................................................................
   1    -13.8743029 -0.138743E+02  0.161E-01   14.09       0.0  T
   2    -13.8743381 -0.352874E-04  0.869E-02   14.09       1.0  T
   3    -13.8743398 -0.162750E-05  0.306E-02   14.09       1.0  T
   4    -13.8743402 -0.448824E-06  0.592E-03   14.09       4.5  T
   5    -13.8743402 -0.816416E-08  0.263E-03   14.09      10.2  T
   6    -13.8743402 -0.478214E-08  0.255E-04   14.09     104.6  T
   7    -13.8743402 -0.816627E-10  0.120E-04   14.09     223.2  T
     SCC iter.                  ...        0 min,  0.002 sec
     gradient                   ...        0 min,  0.001 sec
 * total energy  :   -13.6636305 Eh     change       -0.1389220E-02 Eh
   gradient norm :     0.0030544 Eh/α   predicted    -0.1583589E-02 (  13.99%)
   displ. norm   :     0.0593592 α      lambda       -0.6005866E-04
   maximum displ.:     0.0550286 α      in ANC's #1, #4, #2, ...

........................................................................
.............................. CYCLE   14 ..............................
........................................................................
   1    -13.8749410 -0.138749E+02  0.234E-02   14.11       0.0  T
   2    -13.8749411 -0.120142E-06  0.138E-02   14.11       1.9  T
   3    -13.8749412 -0.133576E-07  0.134E-03   14.12      19.9  T
   4    -13.8749412 -0.193241E-08  0.489E-04   14.12      54.6  T
   5    -13.8749412 -0.256007E-09  0.127E-04   14.12     210.2  T
     SCC iter.                  ...        0 min,  0.001 sec
     gradient                   ...        0 min,  0.001 sec
 * total energy  :   -13.6636696 Eh     change       -0.3909104E-04 Eh
   gradient norm :     0.0035255 Eh/α   predicted    -0.3013674E-04 ( -22.91%)
   displ. norm   :     0.1123109 α      lambda       -0.7718694E-04
   maximum displ.:     0.1018950 α      in ANC's #1, #4, #5, ...

........................................................................
.............................. CYCLE   15 ..............................
........................................................................
   1    -13.8753637 -0.138754E+02  0.331E-02   14.14       0.0  T
   2    -13.8753638 -0.106799E-06  0.195E-02   14.14       1.4  T
   3    -13.8753638 -0.153015E-07  0.135E-03   14.14      19.7  T
   4    -13.8753638 -0.485117E-08  0.579E-04   14.14      46.2  T
   5    -13.8753638 -0.212500E-09  0.143E-04   14.14     187.1  T
     SCC iter.                  ...        0 min,  0.001 sec
     gradient                   ...        0 min,  0.001 sec
 * total energy  :   -13.6637268 Eh     change       -0.5713759E-04 Eh
   gradient norm :     0.0044077 Eh/α   predicted    -0.3908123E-04 ( -31.60%)
   displ. norm   :     0.1813098 α      lambda       -0.1061453E-03
   maximum displ.:     0.1524914 α      in ANC's #1, #3, #4, ...

........................................................................
.............................. CYCLE   16 ..............................
........................................................................
   1    -13.8751500 -0.138752E+02  0.522E-02   14.16       0.0  T
   2    -13.8751502 -0.134794E-06  0.310E-02   14.16       1.0  T
   3    -13.8751502 -0.373754E-07  0.168E-03   14.16      15.9  T
   4    -13.8751502 -0.482142E-08  0.824E-04   14.16      32.5  T
   5    -13.8751502 -0.522782E-09  0.122E-04   14.16     218.7  T
     SCC iter.                  ...        0 min,  0.001 sec
     gradient                   ...        0 min,  0.001 sec
 * total energy  :   -13.6637979 Eh     change       -0.7110548E-04 Eh
   gradient norm :     0.0056291 Eh/α   predicted    -0.5481888E-04 ( -22.90%)
   displ. norm   :     0.1839994 α      lambda       -0.9626699E-04
   maximum displ.:     0.1336274 α      in ANC's #1, #3, #2, ...

........................................................................
.............................. CYCLE   17 ..............................
........................................................................
   1    -13.8744748 -0.138745E+02  0.522E-02   14.18       0.0  T
   2    -13.8744751 -0.210378E-06  0.310E-02   14.18       1.0  T
   3    -13.8744751 -0.263524E-07  0.168E-03   14.18      15.9  T
   4    -13.8744751 -0.748792E-08  0.753E-04   14.18      35.5  T
   5    -13.8744751 -0.250388E-09  0.255E-04   14.18     105.0  T
     SCC iter.                  ...        0 min,  0.001 sec
     gradient                   ...        0 min,  0.001 sec
 * total energy  :   -13.6638612 Eh     change       -0.6329620E-04 Eh
   gradient norm :     0.0044842 Eh/α   predicted    -0.4976538E-04 ( -21.38%)
   displ. norm   :     0.1618620 α      lambda       -0.9103792E-04
   maximum displ.:     0.0986375 α      in ANC's #1, #3, #2, ...

........................................................................
.............................. CYCLE   18 ..............................
........................................................................
   1    -13.8745650 -0.138746E+02  0.477E-02   14.18       0.0  T
   2    -13.8745651 -0.129573E-06  0.285E-02   14.18       1.0  T
   3    -13.8745651 -0.348724E-07  0.151E-03   14.18      17.7  T
   4    -13.8745652 -0.244876E-08  0.708E-04   14.18      37.8  T
   5    -13.8745652 -0.375108E-09  0.149E-04   14.18     179.6  T
     SCC iter.                  ...        0 min,  0.001 sec
     gradient                   ...        0 min,  0.001 sec
 * total energy  :   -13.6639134 Eh     change       -0.5220338E-04 Eh
   gradient norm :     0.0042627 Eh/α   predicted    -0.4671085E-04 ( -10.52%)
   displ. norm   :     0.0559695 α      lambda       -0.4673787E-04
   maximum displ.:     0.0354999 α      in ANC's #1, #2, #3, ...

........................................................................
.............................. CYCLE   19 ..............................
........................................................................
   1    -13.8750548 -0.138751E+02  0.224E-02   14.19       0.0  T
   2    -13.8750550 -0.131414E-06  0.131E-02   14.19       2.0  T
   3    -13.8750550 -0.122122E-07  0.168E-03   14.19      15.9  T
   4    -13.8750550 -0.515581E-08  0.525E-04   14.19      50.9  T
   5    -13.8750550 -0.215524E-09  0.182E-04   14.19     147.1  T
     SCC iter.                  ...        0 min,  0.001 sec
     gradient                   ...        0 min,  0.001 sec
 * total energy  :   -13.6639397 Eh     change       -0.2635689E-04 Eh
   gradient norm :     0.0024954 Eh/α   predicted    -0.2344107E-04 ( -11.06%)
   displ. norm   :     0.0775441 α      lambda       -0.2660611E-04
   maximum displ.:     0.0703873 α      in ANC's #1, #23, #2, ...

........................................................................
.............................. CYCLE   20 ..............................
........................................................................
   1    -13.8749492 -0.138749E+02  0.231E-02   14.19       0.0  T
   2    -13.8749492 -0.248208E-07  0.137E-02   14.19       1.9  T
   3    -13.8749492 -0.610433E-08  0.691E-04   14.19      38.7  T
   4    -13.8749492 -0.922432E-09  0.343E-04   14.19      78.0  T
     SCC iter.                  ...        0 min,  0.001 sec
     gradient                   ...        0 min,  0.001 sec
 * total energy  :   -13.6639606 Eh     change       -0.2084344E-04 Eh
   gradient norm :     0.0023735 Eh/α   predicted    -0.1338287E-04 ( -35.79%)
   displ. norm   :     0.1740280 α      lambda       -0.5682073E-04
   maximum displ.:     0.1590298 α      in ANC's #1, #2, #23, ...
 * RMSD in coord.:     0.7319408 α      energy gain  -0.1371727E-01 Eh

generating ANC from model Hessian ...
Using Lindh-Hessian (1995)
 Shifting diagonal of input Hessian by    5.8642371554001125E-003
 Lowest  eigenvalues of input Hessian
    0.000000    0.000000    0.000000    0.000000    0.000000    0.000000
    0.010000    0.012764    0.013818    0.020753    0.024108    0.046390
    0.051118    0.058531    0.058936    0.061086    0.062374    0.066931
 Highest eigenvalues
    1.132051    1.155335    1.160794    1.210306    1.245269    1.276993


........................................................................
.............................. CYCLE   21 ..............................
........................................................................
   1    -13.8745178 -0.138745E+02  0.483E-02   14.19       0.0  T
   2    -13.8745179 -0.107262E-06  0.289E-02   14.19       1.0  T
   3    -13.8745179 -0.250014E-07  0.127E-03   14.19      21.1  T
   4    -13.8745179 -0.176586E-08  0.639E-04   14.19      41.8  T
   5    -13.8745179 -0.214524E-09  0.156E-04   14.19     170.9  T
     SCC iter.                  ...        0 min,  0.001 sec
     gradient                   ...        0 min,  0.001 sec
 * total energy  :   -13.6640024 Eh     change       -0.4180124E-04 Eh
   gradient norm :     0.0026713 Eh/α   predicted     0.0000000E+00 (-100.00%)
   displ. norm   :     0.0476260 α      lambda       -0.5094729E-04
   maximum displ.:     0.0291485 α      in ANC's #2, #4, #3, ...

........................................................................
.............................. CYCLE   22 ..............................
........................................................................
   1    -13.8747633 -0.138748E+02  0.188E-02   14.20       0.0  T
   2    -13.8747633 -0.398786E-07  0.111E-02   14.20       2.4  T
   3    -13.8747633 -0.736173E-08  0.870E-04   14.20      30.7  T
   4    -13.8747633 -0.153869E-08  0.392E-04   14.20      68.1  T
     SCC iter.                  ...        0 min,  0.001 sec
     gradient                   ...        0 min,  0.001 sec
 * total energy  :   -13.6640433 Eh     change       -0.4092473E-04 Eh
   gradient norm :     0.0011235 Eh/α   predicted    -0.2553008E-04 ( -37.62%)
   displ. norm   :     0.1907372 α      lambda       -0.8216673E-04
   maximum displ.:     0.1183005 α      in ANC's #2, #4, #3, ...

........................................................................
.............................. CYCLE   23 ..............................
........................................................................
   1    -13.8745457 -0.138745E+02  0.571E-02   14.21       0.0  T
   2    -13.8745461 -0.403336E-06  0.340E-02   14.21       1.0  T
   3    -13.8745462 -0.637874E-07  0.273E-03   14.21       9.8  T
   4    -13.8745462 -0.148473E-07  0.116E-03   14.21      23.0  T
   5    -13.8745462 -0.734790E-09  0.242E-04   14.21     110.2  T
   6    -13.8745462 -0.714486E-10  0.844E-05   14.21     316.8  T
     SCC iter.                  ...        0 min,  0.001 sec
     gradient                   ...        0 min,  0.001 sec
 * total energy  :   -13.6640920 Eh     change       -0.4871166E-04 Eh
   gradient norm :     0.0039077 Eh/α   predicted    -0.4174619E-04 ( -14.30%)
   displ. norm   :     0.0200738 α      lambda       -0.2705829E-04
   maximum displ.:     0.0152150 α      in ANC's #1, #5, #4, ...

........................................................................
.............................. CYCLE   24 ..............................
........................................................................
   1    -13.8748014 -0.138748E+02  0.113E-02   14.21       0.0  T
   2    -13.8748014 -0.541849E-07  0.645E-03   14.21       4.1  T
   3    -13.8748014 -0.471958E-08  0.114E-03   14.21      23.5  T
   4    -13.8748014 -0.172397E-08  0.324E-04   14.21      82.4  T
   5    -13.8748014 -0.378542E-10  0.114E-04   14.21     234.9  T
     SCC iter.                  ...        0 min,  0.001 sec
     gradient                   ...        0 min,  0.001 sec
 * total energy  :   -13.6641138 Eh     change       -0.2183220E-04 Eh
   gradient norm :     0.0022601 Eh/α   predicted    -0.1353577E-04 ( -38.00%)
   displ. norm   :     0.0678377 α      lambda       -0.3559432E-04
   maximum displ.:     0.0490411 α      in ANC's #1, #2, #4, ...

........................................................................
.............................. CYCLE   25 ..............................
........................................................................
   1    -13.8748932 -0.138749E+02  0.227E-02   14.21       0.0  T
   2    -13.8748933 -0.582341E-07  0.134E-02   14.21       2.0  T
   3    -13.8748933 -0.903633E-08  0.103E-03   14.21      26.0  T
   4    -13.8748933 -0.220720E-08  0.427E-04   14.21      62.6  T
   5    -13.8748933 -0.573408E-10  0.980E-05   14.21     272.8  T
     SCC iter.                  ...        0 min,  0.001 sec
     gradient                   ...        0 min,  0.001 sec
 * total energy  :   -13.6641363 Eh     change       -0.2245957E-04 Eh
   gradient norm :     0.0004028 Eh/α   predicted    -0.1787738E-04 ( -20.40%)
   displ. norm   :     0.0768560 α      lambda       -0.9038725E-05
   maximum displ.:     0.0567466 α      in ANC's #1, #2, #4, ...

........................................................................
.............................. CYCLE   26 ..............................
........................................................................
   1    -13.8747461 -0.138747E+02  0.209E-02   14.21       0.0  T
   2    -13.8747461 -0.120005E-07  0.125E-02   14.21       2.1  T
   3    -13.8747461 -0.381166E-08  0.391E-04   14.21      68.4  T
   4    -13.8747461 -0.102236E-09  0.208E-04   14.21     128.6  T
     SCC iter.                  ...        0 min,  0.002 sec
     gradient                   ...        0 min,  0.001 sec
 * total energy  :   -13.6641461 Eh     change       -0.9840066E-05 Eh
   gradient norm :     0.0009681 Eh/α   predicted    -0.4532379E-05 ( -53.94%)
   displ. norm   :     0.0423766 α      lambda       -0.5679785E-05
   maximum displ.:     0.0360671 α      in ANC's #1, #2, #3, ...

........................................................................
.............................. CYCLE   27 ..............................
........................................................................
   1    -13.8748808 -0.138749E+02  0.123E-02   14.22       0.0  T
   2    -13.8748808 -0.472178E-08  0.734E-03   14.22       3.6  T
   3    -13.8748808 -0.144272E-08  0.307E-04   14.22      87.2  T
   4    -13.8748808 -0.164183E-09  0.163E-04   14.22     163.6  T
     SCC iter.                  ...        0 min,  0.001 sec
     gradient                   ...        0 min,  0.002 sec
 * total energy  :   -13.6641535 Eh     change       -0.7349304E-05 Eh
   gradient norm :     0.0005164 Eh/α   predicted    -0.2841570E-05 ( -61.34%)
   displ. norm   :     0.0412680 α      lambda       -0.5500242E-05
   maximum displ.:     0.0385015 α      in ANC's #1, #3, #4, ...

........................................................................
.............................. CYCLE   28 ..............................
........................................................................
   1    -13.8750245 -0.138750E+02  0.117E-02   14.22       0.0  T
   2    -13.8750245 -0.642946E-08  0.693E-03   14.22       3.9  T
   3    -13.8750245 -0.165673E-08  0.331E-04   14.22      80.8  T
   4    -13.8750245 -0.105681E-09  0.164E-04   14.22     162.9  T
     SCC iter.                  ...        0 min,  0.003 sec
     gradient                   ...        0 min,  0.001 sec
 * total energy  :   -13.6641604 Eh     change       -0.6936252E-05 Eh
   gradient norm :     0.0002486 Eh/α   predicted    -0.2752037E-05 ( -60.32%)
   displ. norm   :     0.0348020 α      lambda       -0.3421430E-05
   maximum displ.:     0.0332070 α      in ANC's #1, #4, #3, ...

........................................................................
.............................. CYCLE   29 ..............................
........................................................................
   1    -13.8749932 -0.138750E+02  0.997E-03   14.23       0.0  T
   2    -13.8749932 -0.331548E-08  0.595E-03   14.23       4.5  T
   3    -13.8749932 -0.118665E-08  0.268E-04   14.23      99.5  T
   4    -13.8749932 -0.480611E-10  0.103E-04   14.23     260.5  T
     SCC iter.                  ...        0 min,  0.001 sec
     gradient                   ...        0 min,  0.001 sec
 * total energy  :   -13.6641648 Eh     change       -0.4380661E-05 Eh
   gradient norm :     0.0002328 Eh/α   predicted    -0.1710934E-05 ( -60.94%)
   displ. norm   :     0.0239988 α      lambda       -0.1916473E-05
   maximum displ.:     0.0234850 α      in ANC's #1, #2, #4, ...

   *** GEOMETRY OPTIMIZATION CONVERGED AFTER 29 ITERATIONS ***

------------------------------------------------------------------------
 total energy gain   :        -0.0139215 Eh       -8.7359 kcal/mol
 total RMSD          :         0.7238791 a0        0.3831 Å
 total power (kW/mol):        -1.2603759 (step) -357.0906 (real)
------------------------------------------------------------------------

 ANCopt (total)                0 d,  0 h,  0 min,  0.102 sec
 optimizer setup                ...        0 min,  0.000 sec (  0.080%)
 model hessian                  ...        0 min,  0.010 sec (  9.932%)
 ANC generation                 ...        0 min,  0.001 sec (  0.762%)
 coordinate transformation      ...        0 min,  0.000 sec (  0.101%)
 single point calculation       ...        0 min,  0.085 sec ( 83.272%)
 optimization log               ...        0 min,  0.002 sec (  1.873%)
 hessian update                 ...        0 min,  0.000 sec (  0.204%)
 rational function              ...        0 min,  0.003 sec (  2.746%)

================
 final structure:
================
14
 xtb: 6.4.1 (23d549d)
C        -1.62268394644746    0.33821442395756    0.02655351609392
C        -0.54771118171811   -0.44980901238569   -0.71289182901264
C         0.69660326859648   -0.71163659445137    0.13662297572522
C         1.50893378754439    0.54822193732497    0.41343540355385
H        -1.26667676042901    1.32937107296763    0.29476860068204
H        -1.91569653545396   -0.18096791542907    0.93687097415989
H        -2.50430265766944    0.45361411069894   -0.60014833525676
H        -0.25751094970586    0.09124225677662   -1.61648492858859
H        -0.96752204819888   -1.40979361502046   -1.02353371831542
H         0.39584872884801   -1.16557327888619    1.08376461502433
H         1.33184999439161   -1.43061637823702   -0.38665374554953
H         2.41088346525611    0.30165926351618    0.96943287901958
H         0.93609545773350    1.26251557738602    0.99871799101549
H         1.80187937725261    1.02355815178191   -0.52045439855137

 Bond Distances (Angstroems)
 ---------------------------
C1-C2=1.5242         C1-H5=1.0868         C1-H6=1.0882         C1-H7=1.0878         C2-C1=1.5242         C2-C3=1.5292         
C2-H8=1.0924         C2-H9=1.0928         C3-C2=1.5292         C3-C4=1.5244         C3-H10=1.0925        C3-H11=1.0928        
C4-C3=1.5244         C4-H12=1.0879        C4-H13=1.0867        C4-H14=1.0881        H5-C1=1.0868         H6-C1=1.0882         
H7-C1=1.0878         H8-C2=1.0924         H9-C2=1.0928         H10-C3=1.0925        H11-C3=1.0928        H12-C4=1.0879        
H13-C4=1.0867        H14-C4=1.0881        
 C  H  Rav=1.0896 sigma=0.0025  Rmin=1.0867  Rmax=1.0928    10
 C  C  Rav=1.5260 sigma=0.0023  Rmin=1.5242  Rmax=1.5292     3

 selected bond angles (degree)
 --------------------
H5-C1-C2=111.11                H6-C1-C2=110.43                H6-C1-H5=108.47                H7-C1-C2=110.30                
H7-C1-H5=108.11                H7-C1-H6=108.32                C3-C2-C1=113.13                H8-C2-C1=109.42                
H8-C2-C3=109.16                H9-C2-C1=108.73                H9-C2-C3=108.67                H9-C2-H8=107.58                
C4-C3-C2=113.14                H10-C3-C2=109.19               H10-C3-C4=109.43               H11-C3-C2=108.64               
H11-C3-C4=108.72               H11-C3-H10=107.56              H12-C4-C3=110.32               H13-C4-C3=111.11               
H13-C4-H12=108.11              H14-C4-C3=110.41               H14-C4-H12=108.33              H14-C4-H13=108.48              

 selected dihedral angles (degree)
 ---------------------------------
C3-C2-C1-H5= 63.03            C3-C2-C1-H6=302.61            C3-C2-C1-H7=182.91            H8-C2-C1-H5=301.09            
H8-C2-C1-H6=180.68            H8-C2-C1-H7= 60.98            H9-C2-C1-H5=183.86            H9-C2-C1-H6= 63.44            
H9-C2-C1-H7=303.74            C4-C3-C2-C1=290.34            C4-C3-C2-H8= 52.43            C4-C3-C2-H9=169.48            
H10-C3-C2-C1= 52.47           H10-C3-C2-H8=174.56           H10-C3-C2-H9=291.61           H11-C3-C2-C1=169.51           
H11-C3-C2-H8=291.60           H11-C3-C2-H9= 48.65           H12-C4-C3-C2=183.30           H12-C4-C3-H10= 61.31          
H12-C4-C3-H11=304.09          H13-C4-C3-C2= 63.42           H13-C4-C3-H10=301.43          H13-C4-C3-H11=184.21          
H14-C4-C3-C2=303.01           H14-C4-C3-H10=181.02          H14-C4-C3-H11= 63.80          
           -------------------------------------------------
          |                Final Singlepoint                |
           -------------------------------------------------

          ...................................................
          :                      SETUP                      :
          :.................................................:
          :  # basis functions                  26          :
          :  # atomic orbitals                  26          :
          :  # shells                           18          :
          :  # electrons                        26          :
          :  max. iterations                   250          :
          :  Hamiltonian                  GFN2-xTB          :
          :  restarted?                      false          :
          :  GBSA solvation                  false          :
          :  PC potential                    false          :
          :  electronic temp.          300.0000000     K    :
          :  accuracy                    1.0000000          :
          :  -> integral cutoff          0.2500000E+02      :
          :  -> integral neglect         0.1000000E-07      :
          :  -> SCF convergence          0.1000000E-05 Eh   :
          :  -> wf. convergence          0.1000000E-03 e    :
          :  Broyden damping             0.4000000          :
          ...................................................

 iter      E             dE          RMSdq      gap      omega  full diag
   1    -13.8749932 -0.138750E+02  0.204E-05   14.23       0.0  T
   2    -13.8749932 -0.344613E-12  0.117E-05   14.23    2277.6  T
   3    -13.8749932 -0.355271E-14  0.369E-06   14.23    7251.4  T

   *** convergence criteria satisfied after 3 iterations ***

         #    Occupation            Energy/Eh            Energy/eV
      -------------------------------------------------------------
         1        2.0000           -0.6178001             -16.8112
       ...           ...                  ...                  ...
         7        2.0000           -0.4852445             -13.2042
         8        2.0000           -0.4659194             -12.6783
         9        2.0000           -0.4621658             -12.5762
        10        2.0000           -0.4483558             -12.2004
        11        2.0000           -0.4258838             -11.5889
        12        2.0000           -0.4239097             -11.5352
        13        2.0000           -0.4217247             -11.4757 (HOMO)
        14                          0.1011056               2.7512 (LUMO)
        15                          0.1117125               3.0399
        16                          0.1372428               3.7346
        17                          0.1488660               4.0509
        18                          0.1493494               4.0640
       ...                                ...                  ...
        26                          0.3027679               8.2387
      -------------------------------------------------------------
                  HL-Gap            0.5228302 Eh           14.2269 eV
             Fermi-level           -0.1603096 Eh           -4.3622 eV

 SCC (total)                   0 d,  0 h,  0 min,  0.002 sec
 SCC setup                      ...        0 min,  0.000 sec (  2.578%)
 Dispersion                     ...        0 min,  0.000 sec (  1.855%)
 classical contributions        ...        0 min,  0.000 sec (  1.482%)
 integral evaluation            ...        0 min,  0.000 sec ( 11.843%)
 iterations                     ...        0 min,  0.001 sec ( 42.249%)
 molecular gradient             ...        0 min,  0.001 sec ( 36.228%)
 printout                       ...        0 min,  0.000 sec (  3.434%)

         :::::::::::::::::::::::::::::::::::::::::::::::::::::
         ::                     SUMMARY                     ::
         :::::::::::::::::::::::::::::::::::::::::::::::::::::
         :: total energy             -13.664164804369 Eh    ::
         :: gradient norm              0.000232773841 Eh/a0 ::
         :: HOMO-LUMO gap             14.226934775737 eV    ::
         ::.................................................::
         :: SCC energy               -13.874993186365 Eh    ::
         :: -> isotropic ES            0.002970898280 Eh    ::
         :: -> anisotropic ES          0.004980193836 Eh    ::
         :: -> anisotropic XC          0.008990638264 Eh    ::
         :: -> dispersion             -0.006294060943 Eh    ::
         :: repulsion energy           0.210821276097 Eh    ::
         :: add. restraining           0.000000000000 Eh    ::
         :: total charge              -0.000000000000 e     ::
         :::::::::::::::::::::::::::::::::::::::::::::::::::::

           -------------------------------------------------
          |                Property Printout                |
           -------------------------------------------------

    * Orbital Energies and Occupations

         #    Occupation            Energy/Eh            Energy/eV
      -------------------------------------------------------------
         1        2.0000           -0.6178001             -16.8112
         2        2.0000           -0.5961581             -16.2223
         3        2.0000           -0.5730112             -15.5924
         4        2.0000           -0.5477270             -14.9044
         5        2.0000           -0.5066460             -13.7865
         6        2.0000           -0.5055620             -13.7570
         7        2.0000           -0.4852445             -13.2042
         8        2.0000           -0.4659194             -12.6783
         9        2.0000           -0.4621658             -12.5762
        10        2.0000           -0.4483558             -12.2004
        11        2.0000           -0.4258838             -11.5889
        12        2.0000           -0.4239097             -11.5352
        13        2.0000           -0.4217247             -11.4757 (HOMO)
        14                          0.1011056               2.7512 (LUMO)
        15                          0.1117125               3.0399
        16                          0.1372428               3.7346
        17                          0.1488660               4.0509
        18                          0.1493494               4.0640
        19                          0.1573888               4.2828
        20                          0.2021858               5.5018
        21                          0.2071078               5.6357
        22                          0.2344215               6.3789
        23                          0.2489527               6.7743
        24                          0.2781792               7.5696
       ...                                ...                  ...
        26                          0.3027679               8.2387
      -------------------------------------------------------------
                  HL-Gap            0.5228302 Eh           14.2269 eV
             Fermi-level           -0.1603096 Eh           -4.3622 eV

     #   Z          covCN         q      C6AA      α(0)
     1   6 C        3.751    -0.101    22.491     6.763
     2   6 C        3.800    -0.053    21.521     6.605
     3   6 C        3.800    -0.053    21.521     6.605
     4   6 C        3.751    -0.101    22.491     6.763
     5   1 H        0.925     0.035     2.513     2.479
     6   1 H        0.925     0.032     2.553     2.499
     7   1 H        0.925     0.030     2.585     2.514
     8   1 H        0.924     0.030     2.588     2.516
     9   1 H        0.924     0.026     2.643     2.542
    10   1 H        0.924     0.030     2.588     2.516
    11   1 H        0.924     0.026     2.643     2.542
    12   1 H        0.925     0.030     2.585     2.514
    13   1 H        0.925     0.035     2.514     2.479
    14   1 H        0.925     0.032     2.552     2.498

 Mol. C6AA /au·bohr⁶  :       1208.174900
 Mol. C8AA /au·bohr⁸  :      24486.977303
 Mol. α(0) /au        :         51.836309


Wiberg/Mayer (AO) data.
largest (>0.10) Wiberg bond orders for each atom

 ---------------------------------------------------------------------------
     #   Z sym  total        # sym  WBO       # sym  WBO       # sym  WBO
 ---------------------------------------------------------------------------
     1   6 C    3.997 --     2 C    1.020     6 H    0.988     7 H    0.988
                             5 H    0.986
     2   6 C    3.998 --     1 C    1.020     3 C    1.008     9 H    0.979
                             8 H    0.978
     3   6 C    3.998 --     4 C    1.020     2 C    1.008    11 H    0.979
                            10 H    0.978
     4   6 C    3.997 --     3 C    1.020    14 H    0.988    12 H    0.988
                            13 H    0.986
     5   1 H    0.999 --     1 C    0.986
     6   1 H    0.999 --     1 C    0.988
     7   1 H    0.999 --     1 C    0.988
     8   1 H    0.999 --     2 C    0.978
     9   1 H    0.999 --     2 C    0.979
    10   1 H    0.999 --     3 C    0.978
    11   1 H    0.999 --     3 C    0.979
    12   1 H    0.999 --     4 C    0.988
    13   1 H    0.999 --     4 C    0.986
    14   1 H    0.999 --     4 C    0.988
 ---------------------------------------------------------------------------

Topologies differ in total number of bonds
Writing topology from bond orders to xtbtopo.mol

molecular dipole:
                 x           y           z       tot (Debye)
 q only:       -0.002       0.013       0.006
   full:       -0.001       0.010       0.005       0.029
molecular quadrupole (traceless):
                xx          xy          yy          xz          yz          zz
 q only:       -0.023      -0.014       0.052       0.002       0.055      -0.029
  q+dip:       -0.451       0.064       0.034      -0.211      -0.293       0.418
   full:       -0.212       0.026       0.023      -0.095      -0.127       0.189

           -------------------------------------------------
          |                Geometry Summary                 |
           -------------------------------------------------

      molecular mass/u    :       58.1223511
   center of mass at/Å    :        0.0066523      -0.0520604      -0.0257983
  moments of inertia/u·Å² :        0.3727717E+02   0.1065500E+03   0.1231816E+03
rotational constants/cm⁻¹ :        0.4522240E+00   0.1582133E+00   0.1368519E+00

 * 13 selected distances

     #   Z          #   Z                                           value/Å
     1   6 C        2   6 C                                       1.5242463
     2   6 C        3   6 C                                       1.5292310 (max)
     3   6 C        4   6 C                                       1.5243850
     1   6 C        5   1 H                                       1.0867713
     1   6 C        6   1 H                                       1.0881565
     1   6 C        7   1 H                                       1.0878069
     2   6 C        8   1 H                                       1.0924437
     2   6 C        9   1 H                                       1.0928449
     3   6 C       10   1 H                                       1.0925150
     3   6 C       11   1 H                                       1.0928352
     4   6 C       12   1 H                                       1.0878601
     4   6 C       13   1 H                                       1.0866991 (min)
     4   6 C       14   1 H                                       1.0880771

 * 2 distinct bonds (by element types)

   Z      Z             #   av. dist./Å        max./Å        min./Å
   1 H    6 C          10     1.0896010     1.0928449     1.0866991
   6 C    6 C           3     1.5259541     1.5292310     1.5242463


optimized geometry written to: xtbopt.xyz


           -------------------------------------------------
          | TOTAL ENERGY              -13.664164804369 Eh   |
          | GRADIENT NORM               0.000232773841 Eh/α |
          | HOMO-LUMO GAP              14.226934775737 eV   |
           -------------------------------------------------

------------------------------------------------------------------------
 * finished run on 2022/02/09 at 17:30:04.511     
------------------------------------------------------------------------
 total:
 * wall-time:     0 d,  0 h,  0 min,  0.118 sec
 *  cpu-time:     0 d,  0 h,  0 min,  0.782 sec
 * ratio c/w:     6.630 speedup
 SCF:
 * wall-time:     0 d,  0 h,  0 min,  0.005 sec
 *  cpu-time:     0 d,  0 h,  0 min,  0.023 sec
 * ratio c/w:     4.222 speedup
 ANC optimizer:
 * wall-time:     0 d,  0 h,  0 min,  0.105 sec
 *  cpu-time:     0 d,  0 h,  0 min,  0.724 sec
 * ratio c/w:     6.873 speedup

