      -----------------------------------------------------------      
     |                   =====================                   |     
     |                           x T B                           |     
     |                   =====================                   |     
     |                         S. Grimme                         |     
     |          Mulliken Center for Theoretical Chemistry        |     
     |                    University of Bonn                     |     
      -----------------------------------------------------------      

   * xtb version 6.4.1 (23d549d) compiled by 'conda@3c73975816cd' on 2022-01-07

   xtb is free software: you can redistribute it and/or modify it under
   the terms of the GNU Lesser General Public License as published by
   the Free Software Foundation, either version 3 of the License, or
   (at your option) any later version.
   
   xtb is distributed in the hope that it will be useful,
   but WITHOUT ANY WARRANTY; without even the implied warranty of
   MERCHANTABILITY or FITNESS FOR A PARTICULAR PURPOSE.  See the
   GNU Lesser General Public License for more details.
   
   Cite this work as:
   * C. Bannwarth, E. Caldeweyher, S. Ehlert, A. Hansen, P. Pracht,
     J. Seibert, S. Spicher, S. Grimme, WIREs Comput. Mol. Sci., 2020, 11,
     e01493. DOI: 10.1002/wcms.1493
   
   for GFN2-xTB:
   * C. Bannwarth, S. Ehlert and S. Grimme., J. Chem. Theory Comput., 2019,
     15, 1652-1671. DOI: 10.1021/acs.jctc.8b01176
   for GFN1-xTB:
   * S. Grimme, C. Bannwarth, P. Shushkov, J. Chem. Theory Comput., 2017,
     13, 1989-2009. DOI: 10.1021/acs.jctc.7b00118
   for GFN0-xTB:
   * P. Pracht, E. Caldeweyher, S. Ehlert, S. Grimme, ChemRxiv, 2019, preprint.
     DOI: 10.26434/chemrxiv.8326202.v1
   for GFN-FF:
   * S. Spicher and S. Grimme, Angew. Chem. Int. Ed., 2020, 59, 15665-15673.
     DOI: 10.1002/anie.202004239
   
   for DFT-D4:
   * E. Caldeweyher, C. Bannwarth and S. Grimme, J. Chem. Phys., 2017,
     147, 034112. DOI: 10.1063/1.4993215
   * E. Caldeweyher, S. Ehlert, A. Hansen, H. Neugebauer, S. Spicher,
     C. Bannwarth and S. Grimme, J. Chem. Phys., 2019, 150, 154122.
     DOI: 10.1063/1.5090222
   * E. Caldeweyher, J.-M. Mewes, S. Ehlert and S. Grimme, Phys. Chem. Chem. Phys.
     2020, 22, 8499-8512. DOI: 10.1039/D0CP00502A
   
   for sTDA-xTB:
   * S. Grimme and C. Bannwarth, J. Chem. Phys., 2016, 145, 054103.
     DOI: 10.1063/1.4959605
   
   in the mass-spec context:
   * V. Asgeirsson, C. Bauer and S. Grimme, Chem. Sci., 2017, 8, 4879.
     DOI: 10.1039/c7sc00601b
   * J. Koopman and S. Grimme, ACS Omega 2019, 4, 12, 15120-15133.
     DOI: 10.1021/acsomega.9b02011
   
   for metadynamics refer to:
   * S. Grimme, J. Chem. Theory Comput., 2019, 155, 2847-2862
     DOI: 10.1021/acs.jctc.9b00143
   
   for SPH calculations refer to:
   * S. Spicher and S. Grimme, J. Chem. Theory Comput., 2021, 17, 1701-1714
     DOI: 10.1021/acs.jctc.0c01306
   
   with help from (in alphabetical order)
   P. Atkinson, C. Bannwarth, F. Bohle, G. Brandenburg, E. Caldeweyher
   M. Checinski, S. Dohm, S. Ehlert, S. Ehrlich, I. Gerasimov, J. Koopman
   C. Lavigne, S. Lehtola, F. März, M. Müller, F. Musil, H. Neugebauer
   J. Pisarek, C. Plett, P. Pracht, J. Seibert, P. Shushkov, S. Spicher
   M. Stahn, M. Steiner, T. Strunk, J. Stückrath, T. Rose, and J. Unsleber
   
 * started run on 2022/02/09 at 17:30:05.009     

           -------------------------------------------------
          |                Calculation Setup                |
           -------------------------------------------------

          program call               : /home/maihfly/anaconda3/envs/Cyclodextrins-env-4.0/bin/xtb NCT_opt_xtb.xyz --chrg 0 --uhf 0 --opt
          coordinate file            : NCT_opt_xtb.xyz
          omp threads                :                     4
          number of atoms            :                    26
          number of electrons        :                    64
          charge                     :                     0
          spin                       :                   0.0
          first test random number   :      0.24906656163718

   ID    Z sym.   atoms
    1    6 C      1, 3-10, 12
    2    7 N      2, 11
    3    1 H      13-26

           -------------------------------------------------
          |                 G F N 2 - x T B                 |
           -------------------------------------------------

        Reference                      10.1021/acs.jctc.8b01176
      * Hamiltonian:
        H0-scaling (s, p, d)           1.850000    2.230000    2.230000
        zeta-weighting                 0.500000
      * Dispersion:
        s8                             2.700000
        a1                             0.520000
        a2                             5.000000
        s9                             5.000000
      * Repulsion:
        kExp                           1.500000    1.000000
        rExp                           1.000000
      * Coulomb:
        alpha                          2.000000
        third order                    shell-resolved
        anisotropic                    true
        a3                             3.000000
        a5                             4.000000
        cn-shift                       1.200000
        cn-exp                         4.000000
        max-rad                        5.000000


          ...................................................
          :                      SETUP                      :
          :.................................................:
          :  # basis functions                  62          :
          :  # atomic orbitals                  62          :
          :  # shells                           38          :
          :  # electrons                        64          :
          :  max. iterations                   250          :
          :  Hamiltonian                  GFN2-xTB          :
          :  restarted?                      false          :
          :  GBSA solvation                  false          :
          :  PC potential                    false          :
          :  electronic temp.          300.0000000     K    :
          :  accuracy                    1.0000000          :
          :  -> integral cutoff          0.2500000E+02      :
          :  -> integral neglect         0.1000000E-07      :
          :  -> SCF convergence          0.1000000E-05 Eh   :
          :  -> wf. convergence          0.1000000E-03 e    :
          :  Broyden damping             0.4000000          :
          ...................................................

 iter      E             dE          RMSdq      gap      omega  full diag
   1    -34.8343811 -0.348344E+02  0.388E+00    3.34       0.0  T
   2    -34.8683752 -0.339941E-01  0.239E+00    3.23       1.0  T
   3    -34.8678975  0.477754E-03  0.684E-01    2.99       1.0  T
   4    -34.8692369 -0.133945E-02  0.281E-01    2.95       1.0  T
   5    -34.8706059 -0.136902E-02  0.659E-02    2.96       1.0  T
   6    -34.8706314 -0.254392E-04  0.303E-02    2.96       1.0  T
   7    -34.8706356 -0.425093E-05  0.110E-02    2.96       1.8  T
   8    -34.8706359 -0.237911E-06  0.242E-03    2.96       8.1  T
   9    -34.8706359 -0.974433E-07  0.112E-03    2.96      17.5  T
  10    -34.8706360 -0.901564E-08  0.461E-04    2.96      42.5  T
  11    -34.8706360 -0.451131E-09  0.168E-04    2.96     117.0  T

   *** convergence criteria satisfied after 11 iterations ***

         #    Occupation            Energy/Eh            Energy/eV
      -------------------------------------------------------------
         1        2.0000           -0.6668745             -18.1466
       ...           ...                  ...                  ...
        26        2.0000           -0.4368609             -11.8876
        27        2.0000           -0.4318678             -11.7517
        28        2.0000           -0.4306433             -11.7184
        29        2.0000           -0.4218520             -11.4792
        30        2.0000           -0.4098137             -11.1516
        31        2.0000           -0.3636512              -9.8955
        32        2.0000           -0.3553331              -9.6691 (HOMO)
        33                         -0.2464923              -6.7074 (LUMO)
        34                         -0.2315194              -6.3000
        35                         -0.1109918              -3.0202
        36                          0.0109434               0.2978
        37                          0.0495114               1.3473
       ...                                ...                  ...
        62                          0.6510193              17.7151
      -------------------------------------------------------------
                  HL-Gap            0.1088408 Eh            2.9617 eV
             Fermi-level           -0.3009127 Eh           -8.1883 eV

 SCC (total)                   0 d,  0 h,  0 min,  0.021 sec
 SCC setup                      ...        0 min,  0.000 sec (  0.648%)
 Dispersion                     ...        0 min,  0.000 sec (  0.972%)
 classical contributions        ...        0 min,  0.000 sec (  0.206%)
 integral evaluation            ...        0 min,  0.002 sec (  8.247%)
 iterations                     ...        0 min,  0.014 sec ( 68.788%)
 molecular gradient             ...        0 min,  0.004 sec ( 20.338%)
 printout                       ...        0 min,  0.000 sec (  0.751%)

         :::::::::::::::::::::::::::::::::::::::::::::::::::::
         ::                     SUMMARY                     ::
         :::::::::::::::::::::::::::::::::::::::::::::::::::::
         :: total energy             -34.356855202276 Eh    ::
         :: gradient norm              0.116116885968 Eh/a0 ::
         :: HOMO-LUMO gap              2.961710020696 eV    ::
         ::.................................................::
         :: SCC energy               -34.870635958944 Eh    ::
         :: -> isotropic ES            0.013981763286 Eh    ::
         :: -> anisotropic ES          0.006724138875 Eh    ::
         :: -> anisotropic XC          0.030820793371 Eh    ::
         :: -> dispersion             -0.023574209253 Eh    ::
         :: repulsion energy           0.513669534098 Eh    ::
         :: add. restraining           0.000000000000 Eh    ::
         :: total charge              -0.000000000000 e     ::
         :::::::::::::::::::::::::::::::::::::::::::::::::::::

      ----------------------------------------------------------- 
     |                   =====================                   |
     |                        A N C O P T                        |
     |                   =====================                   |
     |               Approximate Normal Coordinate               |
     |                Rational Function Optimizer                |
      ----------------------------------------------------------- 

          ...................................................
          :                      SETUP                      :
          :.................................................:
          :   optimization level            normal          :
          :   max. optcycles                   200          :
          :   ANC micro-cycles                  20          :
          :   degrees of freedom                72          :
          :.................................................:
          :   RF solver                   davidson          :
          :   write xtbopt.log                true          :
          :   linear?                        false          :
          :   energy convergence         0.5000000E-05 Eh   :
          :   grad. convergence          0.1000000E-02 Eh/α :
          :   maximium RF displ.         1.0000000          :
          :   Hlow (freq-cutoff)         0.1000000E-01      :
          :   Hmax (freq-cutoff)         5.0000000          :
          :   S6 in model hess.         20.0000000          :
          ...................................................

generating ANC from model Hessian ...
Using Lindh-Hessian (1995)
 Shifting diagonal of input Hessian by    8.1825257084582412E-003
 Lowest  eigenvalues of input Hessian
    0.000000    0.000000    0.000000    0.000000    0.000000    0.000000
    0.010000    0.010482    0.011075    0.014854    0.017392    0.018877
    0.020530    0.025690    0.028831    0.030610    0.034605    0.038408
 Highest eigenvalues
    1.535222    1.601188    1.738571    1.968204    2.025712    2.125969


........................................................................
.............................. CYCLE    1 ..............................
........................................................................
   1    -34.8706360 -0.348706E+02  0.729E-05    2.96       0.0  T
   2    -34.8706360 -0.172875E-10  0.430E-05    2.96     455.6  T
   3    -34.8706360 -0.367351E-11  0.281E-05    2.96     696.8  T
     SCC iter.                  ...        0 min,  0.005 sec
     gradient                   ...        0 min,  0.005 sec
 * total energy  :   -34.3568552 Eh     change       -0.4068212E-09 Eh
   gradient norm :     0.1161165 Eh/α   predicted     0.0000000E+00 (-100.00%)
   displ. norm   :     0.4226354 α      lambda       -0.2946290E-01
   maximum displ.:     0.1961021 α      in ANC's #10, #28, #31, ...

........................................................................
.............................. CYCLE    2 ..............................
........................................................................
   1    -34.8932663 -0.348933E+02  0.369E-01    3.12       0.0  T
   2    -34.8935041 -0.237846E-03  0.242E-01    3.10       1.0  T
   3    -34.8933614  0.142686E-03  0.101E-01    3.10       1.0  T
   4    -34.8935849 -0.223516E-03  0.253E-02    3.10       1.0  T
   5    -34.8935928 -0.786854E-05  0.797E-03    3.10       2.5  T
   6    -34.8935930 -0.236559E-06  0.363E-03    3.10       5.4  T
   7    -34.8935931 -0.540014E-07  0.106E-03    3.10      18.5  T
   8    -34.8935931 -0.134119E-07  0.321E-04    3.10      61.1  T
   9    -34.8935931 -0.103739E-09  0.138E-04    3.10     142.1  T
     SCC iter.                  ...        0 min,  0.010 sec
     gradient                   ...        0 min,  0.003 sec
 * total energy  :   -34.3771553 Eh     change       -0.2030010E-01 Eh
   gradient norm :     0.0447503 Eh/α   predicted    -0.1736664E-01 ( -14.45%)
   displ. norm   :     0.3516747 α      lambda       -0.8064969E-02
   maximum displ.:     0.2045677 α      in ANC's #10, #9, #28, ...

........................................................................
.............................. CYCLE    3 ..............................
........................................................................
   1    -34.8992252 -0.348992E+02  0.225E-01    3.10       0.0  T
   2    -34.8992864 -0.611789E-04  0.143E-01    3.05       1.0  T
   3    -34.8992239  0.624329E-04  0.559E-02    3.05       1.0  T
   4    -34.8993065 -0.825265E-04  0.132E-02    3.04       1.5  T
   5    -34.8993085 -0.202891E-05  0.448E-03    3.04       4.4  T
   6    -34.8993086 -0.824182E-07  0.192E-03    3.05      10.2  T
   7    -34.8993086 -0.135692E-07  0.587E-04    3.05      33.4  T
   8    -34.8993086 -0.439358E-08  0.209E-04    3.05      93.6  T
     SCC iter.                  ...        0 min,  0.009 sec
     gradient                   ...        0 min,  0.003 sec
 * total energy  :   -34.3820641 Eh     change       -0.4908769E-02 Eh
   gradient norm :     0.0170136 Eh/α   predicted    -0.4532171E-02 (  -7.67%)
   displ. norm   :     0.2409216 α      lambda       -0.1379349E-02
   maximum displ.:     0.1177178 α      in ANC's #10, #3, #9, ...

........................................................................
.............................. CYCLE    4 ..............................
........................................................................
   1    -34.8970319 -0.348970E+02  0.797E-02    2.99       0.0  T
   2    -34.8970366 -0.471253E-05  0.465E-02    2.98       1.0  T
   3    -34.8970353  0.132911E-05  0.103E-02    2.98       1.9  T
   4    -34.8970372 -0.196878E-05  0.356E-03    2.98       5.5  T
   5    -34.8970375 -0.241178E-06  0.129E-03    2.98      15.2  T
   6    -34.8970375 -0.719183E-08  0.415E-04    2.98      47.3  T
   7    -34.8970375 -0.110352E-08  0.149E-04    2.98     131.2  T
     SCC iter.                  ...        0 min,  0.008 sec
     gradient                   ...        0 min,  0.004 sec
 * total energy  :   -34.3829824 Eh     change       -0.9183569E-03 Eh
   gradient norm :     0.0107431 Eh/α   predicted    -0.7298498E-03 ( -20.53%)
   displ. norm   :     0.1831793 α      lambda       -0.5445392E-03
   maximum displ.:     0.0974232 α      in ANC's #3, #5, #4, ...

........................................................................
.............................. CYCLE    5 ..............................
........................................................................
   1    -34.8977676 -0.348978E+02  0.558E-02    2.94       0.0  T
   2    -34.8977696 -0.202718E-05  0.326E-02    2.94       1.0  T
   3    -34.8977676  0.200637E-05  0.112E-02    2.94       1.8  T
   4    -34.8977703 -0.270116E-05  0.229E-03    2.94       8.6  T
   5    -34.8977703 -0.419458E-07  0.102E-03    2.94      19.3  T
   6    -34.8977703 -0.357890E-08  0.292E-04    2.94      67.1  T
   7    -34.8977703 -0.702627E-09  0.126E-04    2.94     156.2  T
     SCC iter.                  ...        0 min,  0.011 sec
     gradient                   ...        0 min,  0.004 sec
 * total energy  :   -34.3833433 Eh     change       -0.3608763E-03 Eh
   gradient norm :     0.0061420 Eh/α   predicted    -0.2814106E-03 ( -22.02%)
   displ. norm   :     0.1623258 α      lambda       -0.2486070E-03
   maximum displ.:     0.0986885 α      in ANC's #5, #3, #2, ...

........................................................................
.............................. CYCLE    6 ..............................
........................................................................
   1    -34.8987858 -0.348988E+02  0.460E-02    2.91       0.0  T
   2    -34.8987870 -0.114867E-05  0.272E-02    2.92       1.0  T
   3    -34.8987859  0.104776E-05  0.784E-03    2.92       2.5  T
   4    -34.8987873 -0.135843E-05  0.177E-03    2.92      11.1  T
   5    -34.8987873 -0.327768E-07  0.737E-04    2.92      26.6  T
   6    -34.8987873 -0.159424E-08  0.241E-04    2.92      81.5  T
     SCC iter.                  ...        0 min,  0.007 sec
     gradient                   ...        0 min,  0.004 sec
 * total energy  :   -34.3835226 Eh     change       -0.1792854E-03 Eh
   gradient norm :     0.0057725 Eh/α   predicted    -0.1275792E-03 ( -28.84%)
   displ. norm   :     0.2036540 α      lambda       -0.2317340E-03
   maximum displ.:     0.1270276 α      in ANC's #5, #2, #3, ...

........................................................................
.............................. CYCLE    7 ..............................
........................................................................
   1    -34.9003248 -0.349003E+02  0.629E-02    2.91       0.0  T
   2    -34.9003260 -0.127269E-05  0.369E-02    2.91       1.0  T
   3    -34.9003258  0.220181E-06  0.503E-03    2.91       3.9  T
   4    -34.9003263 -0.479172E-06  0.194E-03    2.91      10.1  T
   5    -34.9003263 -0.376818E-07  0.842E-04    2.91      23.3  T
   6    -34.9003263 -0.501385E-08  0.240E-04    2.91      81.8  T
     SCC iter.                  ...        0 min,  0.007 sec
     gradient                   ...        0 min,  0.004 sec
 * total energy  :   -34.3836899 Eh     change       -0.1672863E-03 Eh
   gradient norm :     0.0056593 Eh/α   predicted    -0.1206737E-03 ( -27.86%)
   displ. norm   :     0.2553832 α      lambda       -0.2102178E-03
   maximum displ.:     0.1614237 α      in ANC's #5, #2, #3, ...

........................................................................
.............................. CYCLE    8 ..............................
........................................................................
   1    -34.9000422 -0.349000E+02  0.850E-02    2.91       0.0  T
   2    -34.9000439 -0.169680E-05  0.496E-02    2.91       1.0  T
   3    -34.9000437  0.252235E-06  0.587E-03    2.91       3.3  T
   4    -34.9000443 -0.639435E-06  0.223E-03    2.91       8.8  T
   5    -34.9000443 -0.501373E-07  0.924E-04    2.91      21.2  T
   6    -34.9000444 -0.521218E-08  0.230E-04    2.91      85.4  T
     SCC iter.                  ...        0 min,  0.005 sec
     gradient                   ...        0 min,  0.004 sec
 * total energy  :   -34.3838490 Eh     change       -0.1591697E-03 Eh
   gradient norm :     0.0066379 Eh/α   predicted    -0.1119654E-03 ( -29.66%)
   displ. norm   :     0.3570866 α      lambda       -0.2952043E-03
   maximum displ.:     0.1939041 α      in ANC's #5, #2, #1, ...

........................................................................
.............................. CYCLE    9 ..............................
........................................................................
   1    -34.8996737 -0.348997E+02  0.132E-01    2.92       0.0  T
   2    -34.8996773 -0.367239E-05  0.773E-02    2.92       1.0  T
   3    -34.8996749  0.243672E-05  0.128E-02    2.92       1.5  T
   4    -34.8996786 -0.367572E-05  0.335E-03    2.92       5.8  T
   5    -34.8996786 -0.681785E-07  0.136E-03    2.92      14.5  T
   6    -34.8996786 -0.699111E-08  0.323E-04    2.92      60.7  T
   7    -34.8996786 -0.109919E-08  0.156E-04    2.92     125.9  T
     SCC iter.                  ...        0 min,  0.008 sec
     gradient                   ...        0 min,  0.005 sec
 * total energy  :   -34.3840632 Eh     change       -0.2141646E-03 Eh
   gradient norm :     0.0079327 Eh/α   predicted    -0.1664246E-03 ( -22.29%)
   displ. norm   :     0.3547821 α      lambda       -0.2535032E-03
   maximum displ.:     0.1887900 α      in ANC's #1, #5, #2, ...

........................................................................
.............................. CYCLE   10 ..............................
........................................................................
   1    -34.8976001 -0.348976E+02  0.136E-01    2.92       0.0  T
   2    -34.8976036 -0.355210E-05  0.794E-02    2.92       1.0  T
   3    -34.8976008  0.280649E-05  0.135E-02    2.92       1.5  T
   4    -34.8976050 -0.419294E-05  0.334E-03    2.92       5.9  T
   5    -34.8976051 -0.395005E-07  0.128E-03    2.92      15.4  T
   6    -34.8976051 -0.871236E-08  0.307E-04    2.92      63.9  T
   7    -34.8976051 -0.119698E-08  0.140E-04    2.92     139.7  T
     SCC iter.                  ...        0 min,  0.008 sec
     gradient                   ...        0 min,  0.004 sec
 * total energy  :   -34.3842657 Eh     change       -0.2025204E-03 Eh
   gradient norm :     0.0088025 Eh/α   predicted    -0.1427069E-03 ( -29.53%)
   displ. norm   :     0.3446949 α      lambda       -0.3927193E-03
   maximum displ.:     0.2462627 α      in ANC's #1, #5, #2, ...

........................................................................
.............................. CYCLE   11 ..............................
........................................................................
   1    -34.8993754 -0.348994E+02  0.145E-01    2.93       0.0  T
   2    -34.8993831 -0.773958E-05  0.845E-02    2.92       1.0  T
   3    -34.8993782  0.484757E-05  0.176E-02    2.92       1.1  T
   4    -34.8993851 -0.682282E-05  0.461E-03    2.92       4.3  T
   5    -34.8993853 -0.201738E-06  0.190E-03    2.92      10.3  T
   6    -34.8993853 -0.105024E-07  0.645E-04    2.92      30.4  T
   7    -34.8993853 -0.498640E-08  0.168E-04    2.92     117.0  T
     SCC iter.                  ...        0 min,  0.008 sec
     gradient                   ...        0 min,  0.004 sec
 * total energy  :   -34.3845140 Eh     change       -0.2483053E-03 Eh
   gradient norm :     0.0085257 Eh/α   predicted    -0.2197081E-03 ( -11.52%)
   displ. norm   :     0.4160137 α      lambda       -0.3713906E-03
   maximum displ.:     0.2618592 α      in ANC's #1, #5, #3, ...

........................................................................
.............................. CYCLE   12 ..............................
........................................................................
   1    -34.8953303 -0.348953E+02  0.160E-01    2.92       0.0  T
   2    -34.8953350 -0.472063E-05  0.933E-02    2.92       1.0  T
   3    -34.8953347  0.306426E-06  0.102E-02    2.92       1.9  T
   4    -34.8953365 -0.177771E-05  0.408E-03    2.92       4.8  T
   5    -34.8953366 -0.970352E-07  0.151E-03    2.92      13.0  T
   6    -34.8953366 -0.160839E-07  0.362E-04    2.92      54.2  T
   7    -34.8953366 -0.158738E-08  0.156E-04    2.92     125.4  T
     SCC iter.                  ...        0 min,  0.008 sec
     gradient                   ...        0 min,  0.003 sec
 * total energy  :   -34.3847834 Eh     change       -0.2693795E-03 Eh
   gradient norm :     0.0087019 Eh/α   predicted    -0.2178396E-03 ( -19.13%)
   displ. norm   :     0.2941092 α      lambda       -0.3974606E-03
   maximum displ.:     0.2399656 α      in ANC's #1, #5, #3, ...

........................................................................
.............................. CYCLE   13 ..............................
........................................................................
   1    -34.8980716 -0.348981E+02  0.113E-01    2.92       0.0  T
   2    -34.8980743 -0.271943E-05  0.659E-02    2.91       1.0  T
   3    -34.8980746 -0.300923E-06  0.570E-03    2.91       3.4  T
   4    -34.8980750 -0.450483E-06  0.240E-03    2.91       8.2  T
   5    -34.8980750 -0.106744E-07  0.838E-04    2.91      23.4  T
   6    -34.8980751 -0.123867E-07  0.194E-04    2.91     100.9  T
     SCC iter.                  ...        0 min,  0.008 sec
     gradient                   ...        0 min,  0.006 sec
 * total energy  :   -34.3851136 Eh     change       -0.3302242E-03 Eh
   gradient norm :     0.0085457 Eh/α   predicted    -0.2159287E-03 ( -34.61%)
   displ. norm   :     0.5680987 α      lambda       -0.7123444E-03
   maximum displ.:     0.4861203 α      in ANC's #1, #5, #3, ...

........................................................................
.............................. CYCLE   14 ..............................
........................................................................
   1    -34.8989611 -0.348990E+02  0.224E-01    2.90       0.0  T
   2    -34.8989703 -0.920841E-05  0.131E-01    2.90       1.0  T
   3    -34.8989717 -0.138319E-05  0.103E-02    2.90       1.9  T
   4    -34.8989730 -0.133511E-05  0.558E-03    2.90       3.5  T
   5    -34.8989733 -0.282899E-06  0.197E-03    2.90      10.0  T
   6    -34.8989734 -0.513639E-07  0.369E-04    2.90      53.2  T
   7    -34.8989734 -0.113519E-08  0.180E-04    2.90     109.2  T
     SCC iter.                  ...        0 min,  0.009 sec
     gradient                   ...        0 min,  0.004 sec
 * total energy  :   -34.3857462 Eh     change       -0.6325517E-03 Eh
   gradient norm :     0.0112995 Eh/α   predicted    -0.4711230E-03 ( -25.52%)
   displ. norm   :     0.5359379 α      lambda       -0.8659140E-03
   maximum displ.:     0.4844818 α      in ANC's #1, #2, #3, ...

........................................................................
.............................. CYCLE   15 ..............................
........................................................................
   1    -34.9041923 -0.349042E+02  0.214E-01    2.87       0.0  T
   2    -34.9042018 -0.940753E-05  0.125E-01    2.87       1.0  T
   3    -34.9042017  0.103152E-07  0.121E-02    2.87       1.6  T
   4    -34.9042045 -0.273648E-05  0.600E-03    2.87       3.3  T
   5    -34.9042048 -0.363698E-06  0.218E-03    2.87       9.0  T
   6    -34.9042049 -0.291935E-07  0.393E-04    2.87      49.9  T
   7    -34.9042049 -0.100326E-08  0.188E-04    2.87     104.4  T
     SCC iter.                  ...        0 min,  0.008 sec
     gradient                   ...        0 min,  0.004 sec
 * total energy  :   -34.3864766 Eh     change       -0.7304319E-03 Eh
   gradient norm :     0.0128439 Eh/α   predicted    -0.5573185E-03 ( -23.70%)
   displ. norm   :     0.7702630 α      lambda       -0.1125854E-02
   maximum displ.:     0.6709905 α      in ANC's #1, #5, #3, ...

........................................................................
.............................. CYCLE   16 ..............................
........................................................................
   1    -34.8967792 -0.348968E+02  0.321E-01    2.84       0.0  T
   2    -34.8967979 -0.187795E-04  0.187E-01    2.85       1.0  T
   3    -34.8967969  0.102301E-05  0.178E-02    2.84       1.1  T
   4    -34.8968035 -0.656385E-05  0.835E-03    2.84       2.3  T
   5    -34.8968042 -0.725906E-06  0.225E-03    2.84       8.7  T
   6    -34.8968042 -0.341500E-07  0.716E-04    2.84      27.4  T
   7    -34.8968042 -0.719981E-08  0.277E-04    2.84      70.7  T
     SCC iter.                  ...        0 min,  0.008 sec
     gradient                   ...        0 min,  0.004 sec
 * total energy  :   -34.3873638 Eh     change       -0.8871433E-03 Eh
   gradient norm :     0.0154472 Eh/α   predicted    -0.8969234E-03 (   1.10%)
   displ. norm   :     0.5483019 α      lambda       -0.1226811E-02
   maximum displ.:     0.4846108 α      in ANC's #1, #41, #2, ...

........................................................................
.............................. CYCLE   17 ..............................
........................................................................
   1    -34.9009438 -0.349009E+02  0.249E-01    2.83       0.0  T
   2    -34.9009552 -0.114378E-04  0.145E-01    2.83       1.0  T
   3    -34.9009511  0.412411E-05  0.190E-02    2.83       1.0  T
   4    -34.9009591 -0.797965E-05  0.631E-03    2.83       3.1  T
   5    -34.9009593 -0.185388E-06  0.190E-03    2.83      10.3  T
   6    -34.9009593 -0.267983E-07  0.630E-04    2.83      31.1  T
   7    -34.9009593 -0.333831E-08  0.238E-04    2.83      82.4  T
     SCC iter.                  ...        0 min,  0.014 sec
     gradient                   ...        0 min,  0.004 sec
 * total energy  :   -34.3882386 Eh     change       -0.8748666E-03 Eh
   gradient norm :     0.0113010 Eh/α   predicted    -0.7978166E-03 (  -8.81%)
   displ. norm   :     0.5670143 α      lambda       -0.9501809E-03
   maximum displ.:     0.5049118 α      in ANC's #1, #41, #2, ...

........................................................................
.............................. CYCLE   18 ..............................
........................................................................
   1    -34.9004197 -0.349004E+02  0.263E-01    2.80       0.0  T
   2    -34.9004339 -0.141849E-04  0.152E-01    2.79       1.0  T
   3    -34.9004282  0.563711E-05  0.214E-02    2.79       1.0  T
   4    -34.9004390 -0.107852E-04  0.710E-03    2.79       2.8  T
   5    -34.9004392 -0.149770E-06  0.267E-03    2.79       7.3  T
   6    -34.9004392 -0.775704E-07  0.519E-04    2.79      37.8  T
   7    -34.9004393 -0.332346E-08  0.241E-04    2.79      81.3  T
     SCC iter.                  ...        0 min,  0.006 sec
     gradient                   ...        0 min,  0.004 sec
 * total energy  :   -34.3887885 Eh     change       -0.5498992E-03 Eh
   gradient norm :     0.0154612 Eh/α   predicted    -0.6278374E-03 (  14.17%)
   displ. norm   :     0.3043911 α      lambda       -0.7314149E-03
   maximum displ.:     0.2613940 α      in ANC's #1, #41, #29, ...

........................................................................
.............................. CYCLE   19 ..............................
........................................................................
   1    -34.9083451 -0.349083E+02  0.163E-01    2.81       0.0  T
   2    -34.9083515 -0.640599E-05  0.957E-02    2.80       1.0  T
   3    -34.9083423  0.918300E-05  0.224E-02    2.80       1.0  T
   4    -34.9083538 -0.115105E-04  0.427E-03    2.80       4.6  T
   5    -34.9083539 -0.975897E-07  0.186E-03    2.80      10.5  T
   6    -34.9083540 -0.944416E-08  0.620E-04    2.80      31.7  T
   7    -34.9083540 -0.392443E-08  0.176E-04    2.80     111.4  T
     SCC iter.                  ...        0 min,  0.006 sec
     gradient                   ...        0 min,  0.003 sec
 * total energy  :   -34.3891827 Eh     change       -0.3941344E-03 Eh
   gradient norm :     0.0099163 Eh/α   predicted    -0.3995940E-03 (   1.39%)
   displ. norm   :     0.6304185 α      lambda       -0.7878503E-03
   maximum displ.:     0.5589178 α      in ANC's #1, #41, #3, ...

........................................................................
.............................. CYCLE   20 ..............................
........................................................................
   1    -34.8959049 -0.348959E+02  0.314E-01    2.78       0.0  T
   2    -34.8959211 -0.162750E-04  0.182E-01    2.78       1.0  T
   3    -34.8959185  0.267211E-05  0.203E-02    2.78       1.0  T
   4    -34.8959265 -0.806129E-05  0.750E-03    2.78       2.6  T
   5    -34.8959267 -0.182098E-06  0.266E-03    2.78       7.4  T
   6    -34.8959268 -0.978735E-07  0.695E-04    2.78      28.2  T
   7    -34.8959268 -0.632618E-08  0.289E-04    2.78      67.9  T
     SCC iter.                  ...        0 min,  0.008 sec
     gradient                   ...        0 min,  0.004 sec
 * total energy  :   -34.3893239 Eh     change       -0.1412053E-03 Eh
   gradient norm :     0.0184387 Eh/α   predicted    -0.5504826E-03 ( 289.85%)
   displ. norm   :     0.0950678 α      lambda       -0.8115539E-03
   maximum displ.:     0.0523925 α      in ANC's #1, #3, #41, ...
 * RMSD in coord.:     1.1326193 α      energy gain  -0.3246867E-01 Eh

generating ANC from model Hessian ...
Using Lindh-Hessian (1995)
 Shifting diagonal of input Hessian by    8.2929267065805310E-003
 Lowest  eigenvalues of input Hessian
    0.000000    0.000000    0.000000    0.000000    0.000000    0.000000
    0.010000    0.010274    0.011027    0.014852    0.017092    0.018264
    0.020408    0.025880    0.027834    0.030565    0.031850    0.036985
 Highest eigenvalues
    1.534725    1.568780    1.624167    1.920963    2.046612    2.147228


........................................................................
.............................. CYCLE   21 ..............................
........................................................................
   1    -34.9049850 -0.349050E+02  0.737E-02    2.81       0.0  T
   2    -34.9049883 -0.329343E-05  0.431E-02    2.81       1.0  T
   3    -34.9049851  0.323656E-05  0.143E-02    2.81       1.4  T
   4    -34.9049894 -0.430787E-05  0.217E-03    2.81       9.0  T
   5    -34.9049894 -0.451652E-07  0.114E-03    2.81      17.3  T
   6    -34.9049894 -0.135847E-07  0.519E-04    2.81      37.8  T
   7    -34.9049894 -0.155946E-08  0.119E-04    2.81     164.3  T
     SCC iter.                  ...        0 min,  0.008 sec
     gradient                   ...        0 min,  0.004 sec
 * total energy  :   -34.3896687 Eh     change       -0.3448411E-03 Eh
   gradient norm :     0.0140517 Eh/α   predicted     0.0000000E+00 (-100.00%)
   displ. norm   :     0.1097869 α      lambda       -0.4199820E-03
   maximum displ.:     0.0759581 α      in ANC's #3, #1, #8, ...

........................................................................
.............................. CYCLE   22 ..............................
........................................................................
   1    -34.9075176 -0.349075E+02  0.678E-02    2.80       0.0  T
   2    -34.9075196 -0.192483E-05  0.390E-02    2.80       1.0  T
   3    -34.9075191  0.481562E-06  0.676E-03    2.80       2.9  T
   4    -34.9075200 -0.886734E-06  0.258E-03    2.80       7.6  T
   5    -34.9075200 -0.744823E-07  0.117E-03    2.80      16.8  T
   6    -34.9075200 -0.555556E-08  0.220E-04    2.80      89.2  T
   7    -34.9075200 -0.355847E-09  0.952E-05    2.80     205.9  T
     SCC iter.                  ...        0 min,  0.008 sec
     gradient                   ...        0 min,  0.004 sec
 * total energy  :   -34.3899733 Eh     change       -0.3046083E-03 Eh
   gradient norm :     0.0046727 Eh/α   predicted    -0.2125232E-03 ( -30.23%)
   displ. norm   :     0.1880219 α      lambda       -0.2789265E-03
   maximum displ.:     0.1349882 α      in ANC's #3, #1, #8, ...

........................................................................
.............................. CYCLE   23 ..............................
........................................................................
   1    -34.9088477 -0.349088E+02  0.106E-01    2.80       0.0  T
   2    -34.9088502 -0.245294E-05  0.609E-02    2.80       1.0  T
   3    -34.9088504 -0.221406E-06  0.584E-03    2.80       3.4  T
   4    -34.9088508 -0.417161E-06  0.305E-03    2.80       6.4  T
   5    -34.9088509 -0.735528E-07  0.123E-03    2.80      16.0  T
   6    -34.9088509 -0.166312E-07  0.182E-04    2.80     107.8  T
   7    -34.9088509 -0.225960E-09  0.913E-05    2.80     214.8  T
     SCC iter.                  ...        0 min,  0.008 sec
     gradient                   ...        0 min,  0.004 sec
 * total energy  :   -34.3901809 Eh     change       -0.2075407E-03 Eh
   gradient norm :     0.0039964 Eh/α   predicted    -0.1444434E-03 ( -30.40%)
   displ. norm   :     0.2094726 α      lambda       -0.2037329E-03
   maximum displ.:     0.1449893 α      in ANC's #3, #1, #4, ...

........................................................................
.............................. CYCLE   24 ..............................
........................................................................
   1    -34.9087829 -0.349088E+02  0.116E-01    2.81       0.0  T
   2    -34.9087850 -0.208130E-05  0.672E-02    2.81       1.0  T
   3    -34.9087855 -0.502973E-06  0.497E-03    2.81       3.9  T
   4    -34.9087856 -0.130467E-06  0.265E-03    2.81       7.4  T
   5    -34.9087857 -0.651463E-07  0.526E-04    2.81      37.3  T
   6    -34.9087857 -0.626771E-08  0.145E-04    2.81     135.0  T
     SCC iter.                  ...        0 min,  0.008 sec
     gradient                   ...        0 min,  0.005 sec
 * total energy  :   -34.3903646 Eh     change       -0.1837251E-03 Eh
   gradient norm :     0.0065430 Eh/α   predicted    -0.1063377E-03 ( -42.12%)
   displ. norm   :     0.2935567 α      lambda       -0.2897083E-03
   maximum displ.:     0.1995158 α      in ANC's #3, #1, #4, ...

........................................................................
.............................. CYCLE   25 ..............................
........................................................................
   1    -34.9077770 -0.349078E+02  0.161E-01    2.83       0.0  T
   2    -34.9077807 -0.363516E-05  0.933E-02    2.83       1.0  T
   3    -34.9077807 -0.326591E-07  0.854E-03    2.82       2.3  T
   4    -34.9077819 -0.119139E-05  0.397E-03    2.82       4.9  T
   5    -34.9077820 -0.989249E-07  0.781E-04    2.82      25.1  T
   6    -34.9077820 -0.971946E-08  0.214E-04    2.82      91.8  T
     SCC iter.                  ...        0 min,  0.007 sec
     gradient                   ...        0 min,  0.004 sec
 * total energy  :   -34.3906315 Eh     change       -0.2668979E-03 Eh
   gradient norm :     0.0065099 Eh/α   predicted    -0.1573375E-03 ( -41.05%)
   displ. norm   :     0.4384148 α      lambda       -0.4178809E-03
   maximum displ.:     0.2981255 α      in ANC's #3, #1, #4, ...

........................................................................
.............................. CYCLE   26 ..............................
........................................................................
   1    -34.9054979 -0.349055E+02  0.240E-01    2.84       0.0  T
   2    -34.9055055 -0.759204E-05  0.139E-01    2.84       1.0  T
   3    -34.9055038  0.172821E-05  0.145E-02    2.84       1.4  T
   4    -34.9055082 -0.446705E-05  0.575E-03    2.84       3.4  T
   5    -34.9055084 -0.133387E-06  0.146E-03    2.84      13.5  T
   6    -34.9055084 -0.307806E-07  0.344E-04    2.84      57.1  T
   7    -34.9055084 -0.897316E-09  0.165E-04    2.84     119.0  T
     SCC iter.                  ...        0 min,  0.009 sec
     gradient                   ...        0 min,  0.004 sec
 * total energy  :   -34.3909927 Eh     change       -0.3611852E-03 Eh
   gradient norm :     0.0062865 Eh/α   predicted    -0.2491021E-03 ( -31.03%)
   displ. norm   :     0.5508758 α      lambda       -0.4700066E-03
   maximum displ.:     0.3777130 α      in ANC's #3, #1, #4, ...

........................................................................
.............................. CYCLE   27 ..............................
........................................................................
   1    -34.9020578 -0.349021E+02  0.304E-01    2.85       0.0  T
   2    -34.9020693 -0.114866E-04  0.177E-01    2.85       1.0  T
   3    -34.9020650  0.425739E-05  0.191E-02    2.85       1.0  T
   4    -34.9020736 -0.852019E-05  0.701E-03    2.85       2.8  T
   5    -34.9020737 -0.168568E-06  0.203E-03    2.85       9.6  T
   6    -34.9020738 -0.584165E-07  0.451E-04    2.85      43.5  T
   7    -34.9020738 -0.176638E-08  0.212E-04    2.85      92.5  T
     SCC iter.                  ...        0 min,  0.009 sec
     gradient                   ...        0 min,  0.004 sec
 * total energy  :   -34.3913453 Eh     change       -0.3526810E-03 Eh
   gradient norm :     0.0098295 Eh/α   predicted    -0.3063188E-03 ( -13.15%)
   displ. norm   :     0.4199307 α      lambda       -0.4161999E-03
   maximum displ.:     0.2933589 α      in ANC's #3, #1, #4, ...

........................................................................
.............................. CYCLE   28 ..............................
........................................................................
   1    -34.9025129 -0.349025E+02  0.234E-01    2.85       0.0  T
   2    -34.9025186 -0.574318E-05  0.136E-01    2.85       1.0  T
   3    -34.9025154  0.319719E-05  0.149E-02    2.85       1.3  T
   4    -34.9025209 -0.551087E-05  0.506E-03    2.85       3.9  T
   5    -34.9025210 -0.685606E-07  0.131E-03    2.85      15.0  T
   6    -34.9025210 -0.270720E-07  0.313E-04    2.85      62.6  T
   7    -34.9025210 -0.641791E-09  0.147E-04    2.85     133.5  T
     SCC iter.                  ...        0 min,  0.011 sec
     gradient                   ...        0 min,  0.004 sec
 * total energy  :   -34.3916837 Eh     change       -0.3383932E-03 Eh
   gradient norm :     0.0104035 Eh/α   predicted    -0.2448038E-03 ( -27.66%)
   displ. norm   :     0.4170951 α      lambda       -0.6849244E-03
   maximum displ.:     0.2903425 α      in ANC's #3, #1, #41, ...

........................................................................
.............................. CYCLE   29 ..............................
........................................................................
   1    -34.9099750 -0.349100E+02  0.234E-01    2.84       0.0  T
   2    -34.9099808 -0.573061E-05  0.136E-01    2.84       1.0  T
   3    -34.9099779  0.281613E-05  0.147E-02    2.84       1.3  T
   4    -34.9099830 -0.506567E-05  0.509E-03    2.84       3.9  T
   5    -34.9099831 -0.889742E-07  0.126E-03    2.84      15.6  T
   6    -34.9099831 -0.217605E-07  0.383E-04    2.84      51.2  T
   7    -34.9099831 -0.164916E-08  0.169E-04    2.84     116.0  T
     SCC iter.                  ...        0 min,  0.008 sec
     gradient                   ...        0 min,  0.004 sec
 * total energy  :   -34.3921745 Eh     change       -0.4907396E-03 Eh
   gradient norm :     0.0068134 Eh/α   predicted    -0.4020501E-03 ( -18.07%)
   displ. norm   :     0.7514353 α      lambda       -0.6771053E-03
   maximum displ.:     0.5283630 α      in ANC's #3, #1, #41, ...

........................................................................
.............................. CYCLE   30 ..............................
........................................................................
   1    -34.9028642 -0.349029E+02  0.433E-01    2.80       0.0  T
   2    -34.9028891 -0.249325E-04  0.252E-01    2.81       1.0  T
   3    -34.9028843  0.478597E-05  0.255E-02    2.80       1.0  T
   4    -34.9028976 -0.132484E-04  0.102E-02    2.81       1.9  T
   5    -34.9028980 -0.379717E-06  0.313E-03    2.81       6.3  T
   6    -34.9028982 -0.203594E-06  0.663E-04    2.81      29.6  T
   7    -34.9028982 -0.578871E-08  0.315E-04    2.81      62.3  T
     SCC iter.                  ...        0 min,  0.008 sec
     gradient                   ...        0 min,  0.003 sec
 * total energy  :   -34.3925863 Eh     change       -0.4117688E-03 Eh
   gradient norm :     0.0141898 Eh/α   predicted    -0.5297215E-03 (  28.65%)
   displ. norm   :     0.2544703 α      lambda       -0.4745827E-03
   maximum displ.:     0.1756926 α      in ANC's #3, #1, #4, ...

........................................................................
.............................. CYCLE   31 ..............................
........................................................................
   1    -34.9073904 -0.349074E+02  0.141E-01    2.80       0.0  T
   2    -34.9073931 -0.268079E-05  0.816E-02    2.80       1.0  T
   3    -34.9073934 -0.374039E-06  0.643E-03    2.80       3.1  T
   4    -34.9073939 -0.440748E-06  0.327E-03    2.80       6.0  T
   5    -34.9073939 -0.667049E-07  0.990E-04    2.80      19.8  T
   6    -34.9073940 -0.221677E-07  0.252E-04    2.80      77.9  T
     SCC iter.                  ...        0 min,  0.007 sec
     gradient                   ...        0 min,  0.004 sec
 * total energy  :   -34.3929655 Eh     change       -0.3792113E-03 Eh
   gradient norm :     0.0094136 Eh/α   predicted    -0.2526689E-03 ( -33.37%)
   displ. norm   :     0.5219469 α      lambda       -0.6575151E-03
   maximum displ.:     0.3814760 α      in ANC's #3, #1, #41, ...

........................................................................
.............................. CYCLE   32 ..............................
........................................................................
   1    -34.9098763 -0.349099E+02  0.285E-01    2.79       0.0  T
   2    -34.9098856 -0.929330E-05  0.166E-01    2.80       1.0  T
   3    -34.9098866 -0.104362E-05  0.123E-02    2.80       1.6  T
   4    -34.9098886 -0.198397E-05  0.637E-03    2.80       3.1  T
   5    -34.9098889 -0.321438E-06  0.124E-03    2.80      15.8  T
   6    -34.9098889 -0.326599E-07  0.398E-04    2.80      49.3  T
   7    -34.9098889 -0.143720E-08  0.199E-04    2.80      98.6  T
     SCC iter.                  ...        0 min,  0.010 sec
     gradient                   ...        0 min,  0.005 sec
 * total energy  :   -34.3934707 Eh     change       -0.5052768E-03 Eh
   gradient norm :     0.0074641 Eh/α   predicted    -0.4183381E-03 ( -17.21%)
   displ. norm   :     0.6457394 α      lambda       -0.6618712E-03
   maximum displ.:     0.4738447 α      in ANC's #3, #1, #41, ...

........................................................................
.............................. CYCLE   33 ..............................
........................................................................
   1    -34.9074531 -0.349075E+02  0.360E-01    2.81       0.0  T
   2    -34.9074692 -0.160930E-04  0.209E-01    2.81       1.0  T
   3    -34.9074720 -0.278408E-05  0.156E-02    2.81       1.3  T
   4    -34.9074741 -0.215752E-05  0.808E-03    2.81       2.4  T
   5    -34.9074748 -0.680280E-06  0.162E-03    2.81      12.1  T
   6    -34.9074748 -0.458960E-07  0.478E-04    2.81      41.0  T
   7    -34.9074748 -0.144307E-08  0.253E-04    2.81      77.6  T
     SCC iter.                  ...        0 min,  0.009 sec
     gradient                   ...        0 min,  0.005 sec
 * total energy  :   -34.3938777 Eh     change       -0.4069424E-03 Eh
   gradient norm :     0.0106051 Eh/α   predicted    -0.4689326E-03 (  15.23%)
   displ. norm   :     0.3430713 α      lambda       -0.7208094E-03
   maximum displ.:     0.2134446 α      in ANC's #3, #4, #41, ...

........................................................................
.............................. CYCLE   34 ..............................
........................................................................
   1    -34.9200664 -0.349201E+02  0.174E-01    2.86       0.0  T
   2    -34.9200732 -0.680894E-05  0.101E-01    2.86       1.0  T
   3    -34.9200704  0.273525E-05  0.154E-02    2.86       1.3  T
   4    -34.9200754 -0.494245E-05  0.474E-03    2.86       4.1  T
   5    -34.9200754 -0.418524E-07  0.179E-03    2.86      10.9  T
   6    -34.9200755 -0.620990E-07  0.458E-04    2.86      42.8  T
   7    -34.9200755 -0.282979E-08  0.174E-04    2.86     112.9  T
     SCC iter.                  ...        0 min,  0.010 sec
     gradient                   ...        0 min,  0.004 sec
 * total energy  :   -34.3939320 Eh     change       -0.5426964E-04 Eh
   gradient norm :     0.0152061 Eh/α   predicted    -0.4028258E-03 ( 642.27%)
   displ. norm   :     0.5227063 α      lambda       -0.1089586E-02
   maximum displ.:     0.3592980 α      in ANC's #3, #1, #41, ...

........................................................................
.............................. CYCLE   35 ..............................
........................................................................
   1    -34.9070868 -0.349071E+02  0.302E-01    2.81       0.0  T
   2    -34.9071070 -0.201320E-04  0.176E-01    2.82       1.0  T
   3    -34.9070905  0.164804E-04  0.328E-02    2.82       1.0  T
   4    -34.9071136 -0.231527E-04  0.756E-03    2.83       2.6  T
   5    -34.9071138 -0.159059E-06  0.370E-03    2.83       5.3  T
   6    -34.9071140 -0.175852E-06  0.884E-04    2.83      22.2  T
   7    -34.9071140 -0.105143E-07  0.282E-04    2.83      69.7  T
     SCC iter.                  ...        0 min,  0.009 sec
     gradient                   ...        0 min,  0.005 sec
 * total energy  :   -34.3942311 Eh     change       -0.2991222E-03 Eh
   gradient norm :     0.0193586 Eh/α   predicted    -0.6936614E-03 ( 131.90%)
   displ. norm   :     0.0881614 α      lambda       -0.6909718E-03
   maximum displ.:     0.0489848 α      in ANC's #8, #12, #9, ...

........................................................................
.............................. CYCLE   36 ..............................
........................................................................
   1    -34.9104633 -0.349105E+02  0.866E-02    2.82       0.0  T
   2    -34.9104651 -0.178621E-05  0.512E-02    2.82       1.0  T
   3    -34.9104624  0.269133E-05  0.127E-02    2.82       1.5  T
   4    -34.9104658 -0.336349E-05  0.230E-03    2.82       8.5  T
   5    -34.9104658 -0.409679E-07  0.126E-03    2.82      15.5  T
   6    -34.9104658 -0.880438E-08  0.269E-04    2.82      72.9  T
   7    -34.9104658 -0.115021E-08  0.122E-04    2.82     161.3  T
     SCC iter.                  ...        0 min,  0.007 sec
     gradient                   ...        0 min,  0.004 sec
 * total energy  :   -34.3944348 Eh     change       -0.2037342E-03 Eh
   gradient norm :     0.0107179 Eh/α   predicted    -0.3481816E-03 (  70.90%)
   displ. norm   :     0.2433985 α      lambda       -0.3900162E-03
   maximum displ.:     0.1592749 α      in ANC's #3, #1, #41, ...

........................................................................
.............................. CYCLE   37 ..............................
........................................................................
   1    -34.9117192 -0.349117E+02  0.136E-01    2.85       0.0  T
   2    -34.9117226 -0.342449E-05  0.799E-02    2.85       1.0  T
   3    -34.9117200  0.258167E-05  0.123E-02    2.85       1.6  T
   4    -34.9117238 -0.376089E-05  0.360E-03    2.85       5.4  T
   5    -34.9117239 -0.520100E-07  0.159E-03    2.85      12.3  T
   6    -34.9117239 -0.241840E-07  0.337E-04    2.85      58.2  T
   7    -34.9117239 -0.143483E-08  0.135E-04    2.85     145.1  T
     SCC iter.                  ...        0 min,  0.008 sec
     gradient                   ...        0 min,  0.004 sec
 * total energy  :   -34.3946253 Eh     change       -0.1905069E-03 Eh
   gradient norm :     0.0076269 Eh/α   predicted    -0.2065640E-03 (   8.43%)
   displ. norm   :     0.2374690 α      lambda       -0.2406294E-03
   maximum displ.:     0.1378478 α      in ANC's #3, #1, #2, ...

........................................................................
.............................. CYCLE   38 ..............................
........................................................................
   1    -34.9125637 -0.349126E+02  0.124E-01    2.84       0.0  T
   2    -34.9125675 -0.379053E-05  0.717E-02    2.84       1.0  T
   3    -34.9125639  0.364580E-05  0.146E-02    2.84       1.3  T
   4    -34.9125690 -0.509717E-05  0.338E-03    2.84       5.8  T
   5    -34.9125690 -0.272015E-07  0.162E-03    2.84      12.1  T
   6    -34.9125690 -0.290089E-07  0.298E-04    2.84      65.8  T
   7    -34.9125690 -0.102656E-08  0.106E-04    2.84     185.2  T
     SCC iter.                  ...        0 min,  0.009 sec
     gradient                   ...        0 min,  0.004 sec
 * total energy  :   -34.3947793 Eh     change       -0.1539899E-03 Eh
   gradient norm :     0.0075563 Eh/α   predicted    -0.1271029E-03 ( -17.46%)
   displ. norm   :     0.3155073 α      lambda       -0.2753584E-03
   maximum displ.:     0.1841946 α      in ANC's #1, #3, #41, ...

........................................................................
.............................. CYCLE   39 ..............................
........................................................................
   1    -34.9128539 -0.349129E+02  0.166E-01    2.84       0.0  T
   2    -34.9128569 -0.302625E-05  0.974E-02    2.85       1.0  T
   3    -34.9128547  0.224613E-05  0.107E-02    2.85       1.8  T
   4    -34.9128580 -0.336836E-05  0.362E-03    2.85       5.4  T
   5    -34.9128581 -0.915531E-07  0.149E-03    2.85      13.2  T
   6    -34.9128581 -0.103054E-07  0.278E-04    2.85      70.6  T
   7    -34.9128581 -0.110501E-08  0.139E-04    2.85     141.3  T
     SCC iter.                  ...        0 min,  0.018 sec
     gradient                   ...        0 min,  0.004 sec
 * total energy  :   -34.3949311 Eh     change       -0.1517584E-03 Eh
   gradient norm :     0.0097427 Eh/α   predicted    -0.1513848E-03 (  -0.25%)
   displ. norm   :     0.3468836 α      lambda       -0.2981900E-03
   maximum displ.:     0.1975918 α      in ANC's #1, #3, #2, ...

........................................................................
.............................. CYCLE   40 ..............................
........................................................................
   1    -34.9137953 -0.349138E+02  0.173E-01    2.83       0.0  T
   2    -34.9137997 -0.445924E-05  0.100E-01    2.84       1.0  T
   3    -34.9137997 -0.416286E-08  0.945E-03    2.84       2.1  T
   4    -34.9138012 -0.146579E-05  0.384E-03    2.84       5.1  T
   5    -34.9138012 -0.538696E-07  0.108E-03    2.84      18.1  T
   6    -34.9138013 -0.145549E-07  0.294E-04    2.84      66.7  T
   7    -34.9138013 -0.752159E-09  0.138E-04    2.84     142.1  T
     SCC iter.                  ...        0 min,  0.009 sec
     gradient                   ...        0 min,  0.004 sec
 * total energy  :   -34.3950951 Eh     change       -0.1640846E-03 Eh
   gradient norm :     0.0092409 Eh/α   predicted    -0.1670378E-03 (   1.80%)
   displ. norm   :     0.2609846 α      lambda       -0.3349312E-03
   maximum displ.:     0.1374739 α      in ANC's #1, #2, #41, ...

........................................................................
.............................. CYCLE   41 ..............................
........................................................................
   1    -34.9182990 -0.349183E+02  0.119E-01    2.85       0.0  T
   2    -34.9183023 -0.331299E-05  0.698E-02    2.85       1.0  T
   3    -34.9183019  0.414244E-06  0.764E-03    2.84       2.6  T
   4    -34.9183030 -0.111205E-05  0.263E-03    2.84       7.5  T
   5    -34.9183030 -0.374822E-07  0.146E-03    2.84      13.4  T
   6    -34.9183031 -0.248628E-07  0.335E-04    2.84      58.6  T
   7    -34.9183031 -0.337749E-09  0.149E-04    2.84     131.8  T
     SCC iter.                  ...        0 min,  0.009 sec
     gradient                   ...        0 min,  0.004 sec
 * total energy  :   -34.3951382 Eh     change       -0.4309990E-04 Eh
   gradient norm :     0.0134489 Eh/α   predicted    -0.1788777E-03 ( 315.03%)
   displ. norm   :     0.4035904 α      lambda       -0.3657472E-03
   maximum displ.:     0.2571571 α      in ANC's #3, #1, #41, ...

........................................................................
.............................. CYCLE   42 ..............................
........................................................................
   1    -34.9081536 -0.349082E+02  0.212E-01    2.84       0.0  T
   2    -34.9081608 -0.716581E-05  0.124E-01    2.85       1.0  T
   3    -34.9081609 -0.125531E-06  0.107E-02    2.85       1.8  T
   4    -34.9081627 -0.175833E-05  0.486E-03    2.85       4.0  T
   5    -34.9081628 -0.138726E-06  0.209E-03    2.85       9.4  T
   6    -34.9081629 -0.627656E-07  0.397E-04    2.85      49.4  T
   7    -34.9081629 -0.152237E-08  0.182E-04    2.85     107.7  T
     SCC iter.                  ...        0 min,  0.009 sec
     gradient                   ...        0 min,  0.005 sec
 * total energy  :   -34.3951801 Eh     change       -0.4186085E-04 Eh
   gradient norm :     0.0122737 Eh/α   predicted    -0.2126652E-03 ( 408.03%)
   displ. norm   :     0.2124698 α      lambda       -0.6819601E-03
   maximum displ.:     0.1475899 α      in ANC's #3, #1, #2, ...
 * RMSD in coord.:     1.3341291 α      energy gain  -0.5856238E-02 Eh

generating ANC from model Hessian ...
Using Lindh-Hessian (1995)
 Shifting diagonal of input Hessian by    8.3392347111195669E-003
 Lowest  eigenvalues of input Hessian
    0.000000    0.000000    0.000000    0.000000    0.000000    0.000000
    0.010000    0.010335    0.011274    0.015202    0.017467    0.017716
    0.020950    0.023498    0.026934    0.033130    0.034974    0.037685
 Highest eigenvalues
    1.526679    1.571087    1.645911    1.932555    2.045490    2.163113


........................................................................
.............................. CYCLE   43 ..............................
........................................................................
   1    -34.9173405 -0.349173E+02  0.127E-01    2.91       0.0  T
   2    -34.9173610 -0.205008E-04  0.745E-02    2.91       1.0  T
   3    -34.9173492  0.117663E-04  0.349E-02    2.91       1.0  T
   4    -34.9173682 -0.190002E-04  0.589E-03    2.90       3.3  T
   5    -34.9173687 -0.490148E-06  0.195E-03    2.90      10.1  T
   6    -34.9173687 -0.414213E-08  0.980E-04    2.90      20.0  T
   7    -34.9173687 -0.945583E-08  0.187E-04    2.90     104.8  T
     SCC iter.                  ...        0 min,  0.008 sec
     gradient                   ...        0 min,  0.007 sec
 * total energy  :   -34.3948093 Eh     change        0.3708069E-03 Eh
   gradient norm :     0.0286176 Eh/α   predicted     0.0000000E+00 (-100.00%)
   displ. norm   :     0.0735070 α      lambda       -0.8378688E-03
   maximum displ.:     0.0274405 α      in ANC's #2, #20, #3, ...

........................................................................
.............................. CYCLE   44 ..............................
........................................................................
   1    -34.9150772 -0.349151E+02  0.603E-02    2.88       0.0  T
   2    -34.9150833 -0.608898E-05  0.368E-02    2.88       1.0  T
   3    -34.9150811  0.221818E-05  0.164E-02    2.88       1.2  T
   4    -34.9150848 -0.377966E-05  0.356E-03    2.88       5.5  T
   5    -34.9150851 -0.204325E-06  0.946E-04    2.88      20.7  T
   6    -34.9150851 -0.172349E-09  0.472E-04    2.88      41.5  T
     SCC iter.                  ...        0 min,  0.008 sec
     gradient                   ...        0 min,  0.004 sec
 * total energy  :   -34.3953284 Eh     change       -0.5190572E-03 Eh
   gradient norm :     0.0100187 Eh/α   predicted    -0.4212036E-03 ( -18.85%)
   displ. norm   :     0.0622110 α      lambda       -0.1254675E-03
   maximum displ.:     0.0346873 α      in ANC's #2, #3, #1, ...

........................................................................
.............................. CYCLE   45 ..............................
........................................................................
   1    -34.9143068 -0.349143E+02  0.283E-02    2.87       0.0  T
   2    -34.9143081 -0.138765E-05  0.169E-02    2.87       1.2  T
   3    -34.9143077  0.453648E-06  0.815E-03    2.87       2.4  T
   4    -34.9143086 -0.889717E-06  0.152E-03    2.87      12.9  T
   5    -34.9143086 -0.379001E-07  0.441E-04    2.87      44.5  T
   6    -34.9143086 -0.256577E-09  0.216E-04    2.87      90.7  T
     SCC iter.                  ...        0 min,  0.006 sec
     gradient                   ...        0 min,  0.005 sec
 * total energy  :   -34.3954061 Eh     change       -0.7775603E-04 Eh
   gradient norm :     0.0027457 Eh/α   predicted    -0.6512945E-04 ( -16.24%)
   displ. norm   :     0.0601276 α      lambda       -0.3495858E-04
   maximum displ.:     0.0340549 α      in ANC's #3, #2, #1, ...

........................................................................
.............................. CYCLE   46 ..............................
........................................................................
   1    -34.9141160 -0.349141E+02  0.219E-02    2.86       0.0  T
   2    -34.9141162 -0.254955E-06  0.126E-02    2.87       1.6  T
   3    -34.9141159  0.353841E-06  0.450E-03    2.86       4.4  T
   4    -34.9141163 -0.472545E-06  0.654E-04    2.86      30.0  T
   5    -34.9141163 -0.367643E-08  0.334E-04    2.86      58.7  T
     SCC iter.                  ...        0 min,  0.008 sec
     gradient                   ...        0 min,  0.006 sec
 * total energy  :   -34.3954343 Eh     change       -0.2814550E-04 Eh
   gradient norm :     0.0024158 Eh/α   predicted    -0.1754298E-04 ( -37.67%)
   displ. norm   :     0.1140608 α      lambda       -0.5017168E-04
   maximum displ.:     0.0634158 α      in ANC's #2, #3, #1, ...

........................................................................
.............................. CYCLE   47 ..............................
........................................................................
   1    -34.9140444 -0.349140E+02  0.394E-02    2.87       0.0  T
   2    -34.9140449 -0.456346E-06  0.228E-02    2.87       1.0  T
   3    -34.9140442  0.683749E-06  0.578E-03    2.87       3.4  T
   4    -34.9140451 -0.893994E-06  0.101E-03    2.87      19.4  T
   5    -34.9140451 -0.394918E-08  0.534E-04    2.87      36.7  T
   6    -34.9140451 -0.251575E-08  0.104E-04    2.87     189.3  T
     SCC iter.                  ...        0 min,  0.010 sec
     gradient                   ...        0 min,  0.007 sec
 * total energy  :   -34.3954725 Eh     change       -0.3825420E-04 Eh
   gradient norm :     0.0035070 Eh/α   predicted    -0.2546159E-04 ( -33.44%)
   displ. norm   :     0.1284405 α      lambda       -0.4025360E-04
   maximum displ.:     0.0728246 α      in ANC's #2, #3, #1, ...

........................................................................
.............................. CYCLE   48 ..............................
........................................................................
   1    -34.9140957 -0.349141E+02  0.418E-02    2.87       0.0  T
   2    -34.9140961 -0.347405E-06  0.242E-02    2.87       1.0  T
   3    -34.9140959  0.157168E-06  0.337E-03    2.87       5.8  T
   4    -34.9140962 -0.279944E-06  0.104E-03    2.87      18.8  T
   5    -34.9140962 -0.578536E-08  0.456E-04    2.87      43.0  T
   6    -34.9140962 -0.142214E-08  0.103E-04    2.87     189.6  T
     SCC iter.                  ...        0 min,  0.016 sec
     gradient                   ...        0 min,  0.004 sec
 * total energy  :   -34.3955040 Eh     change       -0.3149621E-04 Eh
   gradient norm :     0.0040595 Eh/α   predicted    -0.2045903E-04 ( -35.04%)
   displ. norm   :     0.1528160 α      lambda       -0.4018390E-04
   maximum displ.:     0.0886305 α      in ANC's #2, #3, #1, ...

........................................................................
.............................. CYCLE   49 ..............................
........................................................................
   1    -34.9141848 -0.349142E+02  0.488E-02    2.88       0.0  T
   2    -34.9141852 -0.409399E-06  0.283E-02    2.88       1.0  T
   3    -34.9141853 -0.864582E-07  0.213E-03    2.88       9.2  T
   4    -34.9141854 -0.383082E-07  0.107E-03    2.88      18.4  T
   5    -34.9141854 -0.308476E-08  0.461E-04    2.88      42.6  T
   6    -34.9141854 -0.215160E-08  0.929E-05    2.88     211.2  T
     SCC iter.                  ...        0 min,  0.019 sec
     gradient                   ...        0 min,  0.016 sec
 * total energy  :   -34.3955352 Eh     change       -0.3117575E-04 Eh
   gradient norm :     0.0037298 Eh/α   predicted    -0.2056276E-04 ( -34.04%)
   displ. norm   :     0.1510120 α      lambda       -0.3505528E-04
   maximum displ.:     0.0921941 α      in ANC's #2, #1, #3, ...

........................................................................
.............................. CYCLE   50 ..............................
........................................................................
   1    -34.9143571 -0.349144E+02  0.500E-02    2.89       0.0  T
   2    -34.9143576 -0.491415E-06  0.290E-02    2.89       1.0  T
   3    -34.9143575  0.139564E-06  0.368E-03    2.89       5.3  T
   4    -34.9143578 -0.301665E-06  0.117E-03    2.89      16.7  T
   5    -34.9143578 -0.553403E-08  0.519E-04    2.89      37.8  T
   6    -34.9143578 -0.257870E-08  0.130E-04    2.89     150.6  T
     SCC iter.                  ...        0 min,  0.020 sec
     gradient                   ...        0 min,  0.005 sec
 * total energy  :   -34.3955610 Eh     change       -0.2581112E-04 Eh
   gradient norm :     0.0024414 Eh/α   predicted    -0.1793451E-04 ( -30.52%)
   displ. norm   :     0.1010529 α      lambda       -0.2009165E-04
   maximum displ.:     0.0678198 α      in ANC's #2, #1, #4, ...

........................................................................
.............................. CYCLE   51 ..............................
........................................................................
   1    -34.9146528 -0.349147E+02  0.373E-02    2.90       0.0  T
   2    -34.9146532 -0.336681E-06  0.216E-02    2.90       1.0  T
   3    -34.9146529  0.292393E-06  0.402E-03    2.90       4.9  T
   4    -34.9146533 -0.418559E-06  0.905E-04    2.90      21.7  T
   5    -34.9146533 -0.336707E-08  0.435E-04    2.90      45.1  T
     SCC iter.                  ...        0 min,  0.008 sec
     gradient                   ...        0 min,  0.004 sec
 * total energy  :   -34.3955753 Eh     change       -0.1435162E-04 Eh
   gradient norm :     0.0011060 Eh/α   predicted    -0.1015347E-04 ( -29.25%)
   displ. norm   :     0.0865466 α      lambda       -0.1011669E-04
   maximum displ.:     0.0633438 α      in ANC's #2, #1, #7, ...

........................................................................
.............................. CYCLE   52 ..............................
........................................................................
   1    -34.9149065 -0.349149E+02  0.370E-02    2.90       0.0  T
   2    -34.9149068 -0.324589E-06  0.213E-02    2.90       1.0  T
   3    -34.9149065  0.291437E-06  0.398E-03    2.90       4.9  T
   4    -34.9149070 -0.418668E-06  0.915E-04    2.90      21.4  T
   5    -34.9149070 -0.258262E-08  0.408E-04    2.90      48.1  T
     SCC iter.                  ...        0 min,  0.009 sec
     gradient                   ...        0 min,  0.004 sec
 * total energy  :   -34.3955855 Eh     change       -0.1012095E-04 Eh
   gradient norm :     0.0013746 Eh/α   predicted    -0.5075821E-05 ( -49.85%)
   displ. norm   :     0.0590554 α      lambda       -0.6748664E-05
   maximum displ.:     0.0409641 α      in ANC's #2, #7, #3, ...

........................................................................
.............................. CYCLE   53 ..............................
........................................................................
   1    -34.9147342 -0.349147E+02  0.257E-02    2.90       0.0  T
   2    -34.9147343 -0.109852E-06  0.149E-02    2.90       1.3  T
   3    -34.9147343 -0.384551E-08  0.141E-03    2.90      13.9  T
   4    -34.9147343 -0.328908E-07  0.638E-04    2.90      30.7  T
   5    -34.9147343 -0.254211E-08  0.152E-04    2.90     129.1  T
     SCC iter.                  ...        0 min,  0.008 sec
     gradient                   ...        0 min,  0.006 sec
 * total energy  :   -34.3955944 Eh     change       -0.8907221E-05 Eh
   gradient norm :     0.0014604 Eh/α   predicted    -0.3381522E-05 ( -62.04%)
   displ. norm   :     0.1378509 α      lambda       -0.1494831E-04
   maximum displ.:     0.0907174 α      in ANC's #2, #7, #3, ...

........................................................................
.............................. CYCLE   54 ..............................
........................................................................
   1    -34.9144043 -0.349144E+02  0.577E-02    2.90       0.0  T
   2    -34.9144048 -0.511551E-06  0.335E-02    2.90       1.0  T
   3    -34.9144049 -0.114151E-06  0.246E-03    2.90       8.0  T
   4    -34.9144050 -0.436225E-07  0.130E-03    2.90      15.1  T
   5    -34.9144050 -0.115310E-07  0.393E-04    2.90      50.0  T
   6    -34.9144050 -0.190537E-08  0.751E-05    2.90     261.2  T
     SCC iter.                  ...        0 min,  0.009 sec
     gradient                   ...        0 min,  0.004 sec
 * total energy  :   -34.3956123 Eh     change       -0.1788422E-04 Eh
   gradient norm :     0.0014225 Eh/α   predicted    -0.7538476E-05 ( -57.85%)
   displ. norm   :     0.1931364 α      lambda       -0.1493248E-04
   maximum displ.:     0.1228609 α      in ANC's #2, #7, #3, ...

........................................................................
.............................. CYCLE   55 ..............................
........................................................................
   1    -34.9140106 -0.349140E+02  0.785E-02    2.90       0.0  T
   2    -34.9140116 -0.932533E-06  0.457E-02    2.90       1.0  T
   3    -34.9140118 -0.211979E-06  0.323E-03    2.90       6.1  T
   4    -34.9140119 -0.752702E-07  0.167E-03    2.90      11.7  T
   5    -34.9140119 -0.160080E-07  0.553E-04    2.90      35.5  T
   6    -34.9140119 -0.422183E-08  0.115E-04    2.90     171.0  T
     SCC iter.                  ...        0 min,  0.010 sec
     gradient                   ...        0 min,  0.004 sec
 * total energy  :   -34.3956274 Eh     change       -0.1514037E-04 Eh
   gradient norm :     0.0013636 Eh/α   predicted    -0.7591535E-05 ( -49.86%)
   displ. norm   :     0.0879502 α      lambda       -0.5994893E-05
   maximum displ.:     0.0459959 α      in ANC's #2, #7, #3, ...

........................................................................
.............................. CYCLE   56 ..............................
........................................................................
   1    -34.9145376 -0.349145E+02  0.330E-02    2.90       0.0  T
   2    -34.9145377 -0.158326E-06  0.192E-02    2.90       1.0  T
   3    -34.9145377 -0.249911E-07  0.141E-03    2.90      13.9  T
   4    -34.9145378 -0.242859E-07  0.714E-04    2.90      27.5  T
   5    -34.9145378 -0.415757E-08  0.209E-04    2.90      94.0  T
     SCC iter.                  ...        0 min,  0.007 sec
     gradient                   ...        0 min,  0.005 sec
 * total energy  :   -34.3956340 Eh     change       -0.6593922E-05 Eh
   gradient norm :     0.0007032 Eh/α   predicted    -0.3009399E-05 ( -54.36%)
   displ. norm   :     0.0626737 α      lambda       -0.3714631E-05
   maximum displ.:     0.0328306 α      in ANC's #3, #7, #1, ...

........................................................................
.............................. CYCLE   57 ..............................
........................................................................
   1    -34.9146879 -0.349147E+02  0.213E-02    2.91       0.0  T
   2    -34.9146879 -0.643098E-07  0.124E-02    2.91       1.6  T
   3    -34.9146879  0.122976E-07  0.124E-03    2.91      15.8  T
   4    -34.9146880 -0.350266E-07  0.475E-04    2.91      41.3  T
   5    -34.9146880 -0.113053E-08  0.149E-04    2.91     131.4  T
     SCC iter.                  ...        0 min,  0.007 sec
     gradient                   ...        0 min,  0.005 sec
 * total energy  :   -34.3956383 Eh     change       -0.4321714E-05 Eh
   gradient norm :     0.0003581 Eh/α   predicted    -0.1862055E-05 ( -56.91%)
   displ. norm   :     0.0558430 α      lambda       -0.3695463E-05
   maximum displ.:     0.0345845 α      in ANC's #3, #7, #1, ...

   *** GEOMETRY OPTIMIZATION CONVERGED AFTER 57 ITERATIONS ***

------------------------------------------------------------------------
 total energy gain   :        -0.0387831 Eh      -24.3368 kcal/mol
 total RMSD          :         2.2543025 a0        1.1929 Å
 total power (kW/mol):        -1.7864045 (step) -108.3204 (real)
------------------------------------------------------------------------

 ANCopt (total)                0 d,  0 h,  0 min,  0.940 sec
 optimizer setup                ...        0 min,  0.000 sec (  0.006%)
 model hessian                  ...        0 min,  0.046 sec (  4.922%)
 ANC generation                 ...        0 min,  0.004 sec (  0.478%)
 coordinate transformation      ...        0 min,  0.001 sec (  0.119%)
 single point calculation       ...        0 min,  0.868 sec ( 92.352%)
 optimization log               ...        0 min,  0.007 sec (  0.791%)
 hessian update                 ...        0 min,  0.001 sec (  0.107%)
 rational function              ...        0 min,  0.008 sec (  0.884%)

================
 final structure:
================
26
 xtb: 6.4.1 (23d549d)
C         1.20093776696944    1.76419397772199    0.97482986818219
N         1.22322111490612    0.34507194387017    0.72802841183584
C         2.55321859319964   -0.18807961641670    0.49924230816939
C         2.32486164580970   -1.56634117630832   -0.13519185812076
C         0.85938131615980   -1.54052935374350   -0.59748990100039
C         0.43313653206462   -0.07433399085890   -0.41909445052373
C        -1.03946329204274    0.06544896693219   -0.17450907950511
C        -1.91538717861921    0.44488028216110   -1.18286263974539
C        -3.26964917833397    0.53417581334922   -0.90429601017817
C        -3.69557003768406    0.24334533347886    0.38187817680957
N        -2.87204385901362   -0.11715554365849    1.35243862823783
C        -1.58440116903541   -0.20564547924060    1.07852277367736
H         0.17391029184716    2.08080444082049    1.15242018345382
H         1.61037612797593    2.34805270172089    0.13267308377874
H         1.79166793317416    1.97802983773283    1.86461910036262
H         3.12981621368011    0.45811784563589   -0.18699181416368
H         3.09261614276133   -0.24233902273158    1.44696939146311
H         3.00580316605327   -1.72514406270457   -0.97050605542402
H         2.48731836712172   -2.36273897622194    0.58856306110242
H         0.73584395551650   -1.87301372639138   -1.62661054097635
H         0.24444257912061   -2.17069200185501    0.04455574154872
H         0.70778277825907    0.50334066735242   -1.32546854353623
H        -1.54131972850336    0.66849322221079   -2.17299315648434
H        -3.97540437506216    0.82616288336145   -1.66698391293982
H        -4.74151066428293    0.30150204201719    0.65364056941335
H        -0.93957504204108   -0.49560700823454    1.89699666456319

 Bond Distances (Angstroems)
 ---------------------------
C1-N2=1.4406         C1-H13=1.0893        C1-H14=1.1035        C1-H15=1.0892        N2-C1=1.4406         N2-C3=1.4510         
N2-C6=1.4547         C3-N2=1.4510         C3-C4=1.5344         C3-H16=1.1050        C3-H17=1.0918        C4-C3=1.5344         
C4-C5=1.5369         C4-H18=1.0893        C4-H19=1.0883        C5-C4=1.5369         C5-C6=1.5373         C5-H20=1.0885        
C5-H21=1.0897        C6-N2=1.4547         C6-C5=1.5373         C6-C7=1.4993         C6-H22=1.1093        C7-C6=1.4993         
C7-C8=1.3885         C7-C12=1.3930        C8-C7=1.3885         C8-C9=1.3855         C8-H23=1.0818        C9-C8=1.3855         
C9-C10=1.3857        C9-H24=1.0794        C10-C9=1.3857        C10-N11=1.3229       C10-H25=1.0822       N11-C10=1.3229       
N11-C12=1.3194       C12-C7=1.3930        C12-N11=1.3194       C12-H26=1.0816       H13-C1=1.0893        H14-C1=1.1035        
H15-C1=1.0892        H16-C3=1.1050        H17-C3=1.0918        H18-C4=1.0893        H19-C4=1.0883        H20-C5=1.0885        
H21-C5=1.0897        H22-C6=1.1093        H23-C8=1.0818        H24-C9=1.0794        H25-C10=1.0822       H26-C12=1.0816       
 C  H  Rav=1.0906 sigma=0.0089  Rmin=1.0794  Rmax=1.1093    14
 C  C  Rav=1.4576 sigma=0.0703  Rmin=1.3855  Rmax=1.5373     8
 N  C  Rav=1.3977 sigma=0.0627  Rmin=1.3194  Rmax=1.4547     5

 selected bond angles (degree)
 --------------------
H13-C1-N2=109.20               H14-C1-N2=112.63               H14-C1-H13=108.69              H15-C1-N2=108.96               
H15-C1-H13=108.73              H15-C1-H14=108.56              C3-N2-C1=113.77                C6-N2-C1=114.25                
C6-N2-C3=105.52                C4-C3-N2=105.00                H16-C3-N2=111.18               H16-C3-C4=110.25               
H17-C3-N2=109.53               H17-C3-C4=112.82               H17-C3-H16=108.08              C5-C4-C3=104.55                
H18-C4-C3=110.79               H18-C4-C5=111.58               H19-C4-C3=111.11               H19-C4-C5=110.77               
H19-C4-H18=108.06              C6-C5-C4=104.21                H20-C5-C4=112.80               H20-C5-C6=111.69               
H21-C5-C4=110.56               H21-C5-C6=109.07               H21-C5-H20=108.44              C5-C6-N2=102.47                
C7-C6-N2=112.21                C7-C6-C5=112.35                H22-C6-N2=111.08               H22-C6-C5=109.46               
H22-C6-C7=109.14               C8-C7-C6=121.78                C12-C7-C6=120.85               C12-C7-C8=117.36               
C9-C8-C7=119.22                H23-C8-C7=120.20               H23-C8-C9=120.58               C10-C9-C8=118.26               
H24-C9-C8=120.96               H24-C9-C10=120.77              N11-C10-C9=123.15              H25-C10-C9=121.26              
H25-C10-N11=115.60             

 selected dihedral angles (degree)
 ---------------------------------
C3-N2-C1-H13=180.95           C3-N2-C1-H14= 60.10           C3-N2-C1-H15=299.58           C6-N2-C1-H13= 59.67           
C6-N2-C1-H14=298.82           C6-N2-C1-H15=178.30           C4-C3-N2-C1=196.15            C4-C3-N2-C6=322.17            
H16-C3-N2-C1=315.37           H16-C3-N2-C6= 81.40           H17-C3-N2-C1= 74.75           H17-C3-N2-C6=200.77           
C5-C4-C3-N2= 16.21            C5-C4-C3-H16=256.37           C5-C4-C3-H17=135.43           H18-C4-C3-N2=136.55           
H18-C4-C3-H16= 16.71          H18-C4-C3-H17=255.77          H19-C4-C3-N2=256.68           H19-C4-C3-H16=136.84          
H19-C4-C3-H17= 15.90          C6-C5-C4-C3=  9.62            C6-C5-C4-H18=249.82           C6-C5-C4-H19=129.38           
H20-C5-C4-C3=130.95           H20-C5-C4-H18= 11.15          H20-C5-C4-H19=250.71          H21-C5-C4-C3=252.56           
H21-C5-C4-H18=132.76          H21-C5-C4-H19= 12.32          C5-C6-N2-C1=169.39            C5-C6-N2-C3= 43.66            
C7-C6-N2-C1=290.11            C7-C6-N2-C3=164.38            H22-C6-N2-C1= 52.58           H22-C6-N2-C3=286.85           
N2-C6-C5-C4=328.07            N2-C6-C5-H20=206.00           N2-C6-C5-H21= 86.15           C7-C6-C5-C4=207.44            
C7-C6-C5-H20= 85.38           C7-C6-C5-H21=325.53           H22-C6-C5-C4= 86.02           H22-C6-C5-H20=323.96          
H22-C6-C5-H21=204.11          C8-C7-C6-N2=144.09            C8-C7-C6-C5=258.92            C8-C7-C6-H22= 20.52           
C12-C7-C6-N2=322.98           C12-C7-C6-C5= 77.81           C12-C7-C6-H22=199.41          C9-C8-C7-C6=178.84            
C9-C8-C7-C12=359.92           H23-C8-C7-C6=358.77           H23-C8-C7-C12=179.86          C10-C9-C8-C7=  0.25           
C10-C9-C8-H23=180.31          H24-C9-C8-C7=180.02           H24-C9-C8-H23=  0.08          N11-C10-C9-C8=359.86          
N11-C10-C9-H24=180.09         H25-C10-C9-C8=179.75          H25-C10-C9-H24=  0.00         
           -------------------------------------------------
          |                Final Singlepoint                |
           -------------------------------------------------

          ...................................................
          :                      SETUP                      :
          :.................................................:
          :  # basis functions                  62          :
          :  # atomic orbitals                  62          :
          :  # shells                           38          :
          :  # electrons                        64          :
          :  max. iterations                   250          :
          :  Hamiltonian                  GFN2-xTB          :
          :  restarted?                      false          :
          :  GBSA solvation                  false          :
          :  PC potential                    false          :
          :  electronic temp.          300.0000000     K    :
          :  accuracy                    1.0000000          :
          :  -> integral cutoff          0.2500000E+02      :
          :  -> integral neglect         0.1000000E-07      :
          :  -> SCF convergence          0.1000000E-05 Eh   :
          :  -> wf. convergence          0.1000000E-03 e    :
          :  Broyden damping             0.4000000          :
          ...................................................

 iter      E             dE          RMSdq      gap      omega  full diag
   1    -34.9146880 -0.349147E+02  0.406E-05    2.91       0.0  T
   2    -34.9146880 -0.100471E-10  0.236E-05    2.91     829.8  T
   3    -34.9146880 -0.497380E-11  0.131E-05    2.91    1491.4  T

   *** convergence criteria satisfied after 3 iterations ***

         #    Occupation            Energy/Eh            Energy/eV
      -------------------------------------------------------------
         1        2.0000           -0.6601696             -17.9641
       ...           ...                  ...                  ...
        26        2.0000           -0.4475191             -12.1776
        27        2.0000           -0.4327380             -11.7754
        28        2.0000           -0.4296390             -11.6911
        29        2.0000           -0.4274676             -11.6320
        30        2.0000           -0.4058760             -11.0444
        31        2.0000           -0.3640049              -9.9051
        32        2.0000           -0.3509960              -9.5511 (HOMO)
        33                         -0.2441850              -6.6446 (LUMO)
        34                         -0.2330180              -6.3407
        35                         -0.1097435              -2.9863
        36                          0.0307716               0.8373
        37                          0.0520859               1.4173
       ...                                ...                  ...
        62                          0.6275543              17.0766
      -------------------------------------------------------------
                  HL-Gap            0.1068110 Eh            2.9065 eV
             Fermi-level           -0.2975905 Eh           -8.0978 eV

 SCC (total)                   0 d,  0 h,  0 min,  0.010 sec
 SCC setup                      ...        0 min,  0.000 sec (  1.106%)
 Dispersion                     ...        0 min,  0.000 sec (  1.123%)
 classical contributions        ...        0 min,  0.000 sec (  0.309%)
 integral evaluation            ...        0 min,  0.001 sec ( 11.995%)
 iterations                     ...        0 min,  0.004 sec ( 41.491%)
 molecular gradient             ...        0 min,  0.004 sec ( 42.589%)
 printout                       ...        0 min,  0.000 sec (  1.149%)

         :::::::::::::::::::::::::::::::::::::::::::::::::::::
         ::                     SUMMARY                     ::
         :::::::::::::::::::::::::::::::::::::::::::::::::::::
         :: total energy             -34.395638317787 Eh    ::
         :: gradient norm              0.000358156607 Eh/a0 ::
         :: HOMO-LUMO gap              2.906476100742 eV    ::
         ::.................................................::
         :: SCC energy               -34.914687972376 Eh    ::
         :: -> isotropic ES            0.013364991863 Eh    ::
         :: -> anisotropic ES          0.005994731771 Eh    ::
         :: -> anisotropic XC          0.028785010406 Eh    ::
         :: -> dispersion             -0.023507419528 Eh    ::
         :: repulsion energy           0.518888050572 Eh    ::
         :: add. restraining           0.000000000000 Eh    ::
         :: total charge              -0.000000000000 e     ::
         :::::::::::::::::::::::::::::::::::::::::::::::::::::

           -------------------------------------------------
          |                Property Printout                |
           -------------------------------------------------

    * Orbital Energies and Occupations

         #    Occupation            Energy/Eh            Energy/eV
      -------------------------------------------------------------
         1        2.0000           -0.6601696             -17.9641
       ...           ...                  ...                  ...
        20        2.0000           -0.4844662             -13.1830
        21        2.0000           -0.4709509             -12.8152
        22        2.0000           -0.4686792             -12.7534
        23        2.0000           -0.4645816             -12.6419
        24        2.0000           -0.4596370             -12.5074
        25        2.0000           -0.4532429             -12.3334
        26        2.0000           -0.4475191             -12.1776
        27        2.0000           -0.4327380             -11.7754
        28        2.0000           -0.4296390             -11.6911
        29        2.0000           -0.4274676             -11.6320
        30        2.0000           -0.4058760             -11.0444
        31        2.0000           -0.3640049              -9.9051
        32        2.0000           -0.3509960              -9.5511 (HOMO)
        33                         -0.2441850              -6.6446 (LUMO)
        34                         -0.2330180              -6.3407
        35                         -0.1097435              -2.9863
        36                          0.0307716               0.8373
        37                          0.0520859               1.4173
        38                          0.0584777               1.5913
        39                          0.0911116               2.4793
        40                          0.1083802               2.9492
        41                          0.1195695               3.2537
        42                          0.1255961               3.4176
        43                          0.1449545               3.9444
       ...                                ...                  ...
        62                          0.6275543              17.0766
      -------------------------------------------------------------
                  HL-Gap            0.1068110 Eh            2.9065 eV
             Fermi-level           -0.2975905 Eh           -8.0978 eV

     #   Z          covCN         q      C6AA      α(0)
     1   6 C        3.703    -0.026    21.185     6.581
     2   7 N        2.751    -0.180    24.896     7.411
     3   6 C        3.799     0.014    20.349     6.423
     4   6 C        3.819    -0.059    21.627     6.618
     5   6 C        3.827    -0.057    21.585     6.611
     6   6 C        3.855     0.047    19.753     6.321
     7   6 C        2.968    -0.003    28.107     8.696
     8   6 C        2.933    -0.021    28.521     8.758
     9   6 C        2.913    -0.041    29.008     8.832
    10   6 C        2.914     0.055    26.764     8.483
    11   7 N        1.835    -0.219    26.625     7.647
    12   6 C        2.918     0.055    26.770     8.484
    13   1 H        0.925     0.037     2.485     2.465
    14   1 H        0.923     0.008     2.923     2.674
    15   1 H        0.925     0.039     2.456     2.451
    16   1 H        0.922     0.007     2.939     2.681
    17   1 H        0.924     0.034     2.534     2.489
    18   1 H        0.925     0.035     2.522     2.484
    19   1 H        0.925     0.040     2.447     2.446
    20   1 H        0.925     0.033     2.540     2.492
    21   1 H        0.925     0.042     2.421     2.433
    22   1 H        0.922     0.005     2.970     2.695
    23   1 H        0.925     0.030     2.591     2.517
    24   1 H        0.926     0.034     2.528     2.486
    25   1 H        0.925     0.037     2.485     2.465
    26   1 H        0.925     0.054     2.273     2.357

 Mol. C6AA /au·bohr⁶  :       6679.085894
 Mol. C8AA /au·bohr⁸  :     152075.699525
 Mol. α(0) /au        :        126.000800


Wiberg/Mayer (AO) data.
largest (>0.10) Wiberg bond orders for each atom

 ---------------------------------------------------------------------------
     #   Z sym  total        # sym  WBO       # sym  WBO       # sym  WBO
 ---------------------------------------------------------------------------
     1   6 C    3.988 --     2 N    1.021    15 H    0.983    13 H    0.982
                            14 H    0.971
     2   7 N    3.123 --     1 C    1.021     3 C    1.002     6 C    0.987
     3   6 C    3.987 --     2 N    1.002     4 C    1.002    17 H    0.976
                            16 H    0.967
     4   6 C    3.996 --     3 C    1.002     5 C    1.000    18 H    0.983
                            19 H    0.983
     5   6 C    3.996 --     4 C    1.000    20 H    0.982    21 H    0.980
                             6 C    0.974
     6   6 C    3.986 --     7 C    1.000     2 N    0.987     5 C    0.974
                            22 H    0.952
     7   6 C    3.988 --     8 C    1.420    12 C    1.385     6 C    1.000
                            10 C    0.113
     8   6 C    3.991 --     9 C    1.441     7 C    1.420    23 H    0.968
                            11 N    0.100
     9   6 C    3.992 --     8 C    1.441    10 C    1.429    24 H    0.970
                            12 C    0.115
    10   6 C    3.982 --    11 N    1.433     9 C    1.429    25 H    0.964
                             7 C    0.113
    11   7 N    3.064 --    12 C    1.453    10 C    1.433     8 C    0.100
    12   6 C    3.981 --    11 N    1.453     7 C    1.385    26 H    0.960
                             9 C    0.115
    13   1 H    0.999 --     1 C    0.982
    14   1 H    1.000 --     1 C    0.971
    15   1 H    0.998 --     1 C    0.983
    16   1 H    1.000 --     3 C    0.967
    17   1 H    0.998 --     3 C    0.976
    18   1 H    0.999 --     4 C    0.983
    19   1 H    0.998 --     4 C    0.983
    20   1 H    0.999 --     5 C    0.982
    21   1 H    0.998 --     5 C    0.980
    22   1 H    1.000 --     6 C    0.952
    23   1 H    0.999 --     8 C    0.968
    24   1 H    0.998 --     9 C    0.970
    25   1 H    0.998 --    10 C    0.964
    26   1 H    0.997 --    12 C    0.960
 ---------------------------------------------------------------------------

Topologies differ in total number of bonds
Writing topology from bond orders to xtbtopo.mol

molecular dipole:
                 x           y           z       tot (Debye)
 q only:        0.344      -0.073      -0.341
   full:        0.608       0.191      -0.983       2.976
molecular quadrupole (traceless):
                xx          xy          yy          xz          yz          zz
 q only:        0.432      -1.859       0.696       3.728       0.491      -1.128
  q+dip:        1.243      -1.877      -1.139       6.054      -1.352      -0.104
   full:        0.618      -1.777       1.606       6.669       0.309      -2.224

           -------------------------------------------------
          |                Geometry Summary                 |
           -------------------------------------------------

      molecular mass/u    :      162.2319359
   center of mass at/Å    :       -0.4124125      -0.0172011       0.1431114
  moments of inertia/u·Å² :        0.2446044E+03   0.8476051E+03   0.9062829E+03
rotational constants/cm⁻¹ :        0.6891795E-01   0.1988854E-01   0.1860085E-01

 * 26 selected distances

     #   Z          #   Z                                           value/Å
     1   6 C        2   7 N                                       1.4405953
     2   7 N        3   6 C                                       1.4510296
     3   6 C        4   6 C                                       1.5343593
     4   6 C        5   6 C                                       1.5368859
     2   7 N        6   6 C                                       1.4546566
     5   6 C        6   6 C                                       1.5372828 (max)
     7   6 C        8   6 C                                       1.3885200
     8   6 C        9   6 C                                       1.3854958
     9   6 C       10   6 C                                       1.3857254
    10   6 C       11   7 N                                       1.3229300
     7   6 C       12   6 C                                       1.3930321
    11   7 N       12   6 C                                       1.3194257
     1   6 C       13   1 H                                       1.0892961
     1   6 C       14   1 H                                       1.1035211
     1   6 C       15   1 H                                       1.0892258
     3   6 C       16   1 H                                       1.1049675
     3   6 C       17   1 H                                       1.0918244
     4   6 C       18   1 H                                       1.0893344
     4   6 C       19   1 H                                       1.0883303
     5   6 C       20   1 H                                       1.0885296
     5   6 C       21   1 H                                       1.0897143
     6   6 C       22   1 H                                       1.1093478
     8   6 C       23   1 H                                       1.0817983
     9   6 C       24   1 H                                       1.0793700 (min)
    10   6 C       25   1 H                                       1.0822332
    12   6 C       26   1 H                                       1.0815627

 * 3 distinct bonds (by element types)

   Z      Z             #   av. dist./Å        max./Å        min./Å
   1 H    6 C          14     1.0906468     1.1093478     1.0793700
   6 C    6 C           7     1.4516145     1.5372828     1.3854958
   6 C    7 N           5     1.3977274     1.4546566     1.3194257


optimized geometry written to: xtbopt.xyz


           -------------------------------------------------
          | TOTAL ENERGY              -34.395638317787 Eh   |
          | GRADIENT NORM               0.000358156607 Eh/α |
          | HOMO-LUMO GAP               2.906476100742 eV   |
           -------------------------------------------------

------------------------------------------------------------------------
 * finished run on 2022/02/09 at 17:30:05.989     
------------------------------------------------------------------------
 total:
 * wall-time:     0 d,  0 h,  0 min,  0.980 sec
 *  cpu-time:     0 d,  0 h,  0 min,  6.653 sec
 * ratio c/w:     6.790 speedup
 SCF:
 * wall-time:     0 d,  0 h,  0 min,  0.021 sec
 *  cpu-time:     0 d,  0 h,  0 min,  0.127 sec
 * ratio c/w:     6.049 speedup
 ANC optimizer:
 * wall-time:     0 d,  0 h,  0 min,  0.951 sec
 *  cpu-time:     0 d,  0 h,  0 min,  6.454 sec
 * ratio c/w:     6.786 speedup

