      -----------------------------------------------------------      
     |                   =====================                   |     
     |                           x T B                           |     
     |                   =====================                   |     
     |                         S. Grimme                         |     
     |          Mulliken Center for Theoretical Chemistry        |     
     |                    University of Bonn                     |     
      -----------------------------------------------------------      

   * xtb version 6.4.1 (23d549d) compiled by 'conda@3c73975816cd' on 2022-01-07

   xtb is free software: you can redistribute it and/or modify it under
   the terms of the GNU Lesser General Public License as published by
   the Free Software Foundation, either version 3 of the License, or
   (at your option) any later version.
   
   xtb is distributed in the hope that it will be useful,
   but WITHOUT ANY WARRANTY; without even the implied warranty of
   MERCHANTABILITY or FITNESS FOR A PARTICULAR PURPOSE.  See the
   GNU Lesser General Public License for more details.
   
   Cite this work as:
   * C. Bannwarth, E. Caldeweyher, S. Ehlert, A. Hansen, P. Pracht,
     J. Seibert, S. Spicher, S. Grimme, WIREs Comput. Mol. Sci., 2020, 11,
     e01493. DOI: 10.1002/wcms.1493
   
   for GFN2-xTB:
   * C. Bannwarth, S. Ehlert and S. Grimme., J. Chem. Theory Comput., 2019,
     15, 1652-1671. DOI: 10.1021/acs.jctc.8b01176
   for GFN1-xTB:
   * S. Grimme, C. Bannwarth, P. Shushkov, J. Chem. Theory Comput., 2017,
     13, 1989-2009. DOI: 10.1021/acs.jctc.7b00118
   for GFN0-xTB:
   * P. Pracht, E. Caldeweyher, S. Ehlert, S. Grimme, ChemRxiv, 2019, preprint.
     DOI: 10.26434/chemrxiv.8326202.v1
   for GFN-FF:
   * S. Spicher and S. Grimme, Angew. Chem. Int. Ed., 2020, 59, 15665-15673.
     DOI: 10.1002/anie.202004239
   
   for DFT-D4:
   * E. Caldeweyher, C. Bannwarth and S. Grimme, J. Chem. Phys., 2017,
     147, 034112. DOI: 10.1063/1.4993215
   * E. Caldeweyher, S. Ehlert, A. Hansen, H. Neugebauer, S. Spicher,
     C. Bannwarth and S. Grimme, J. Chem. Phys., 2019, 150, 154122.
     DOI: 10.1063/1.5090222
   * E. Caldeweyher, J.-M. Mewes, S. Ehlert and S. Grimme, Phys. Chem. Chem. Phys.
     2020, 22, 8499-8512. DOI: 10.1039/D0CP00502A
   
   for sTDA-xTB:
   * S. Grimme and C. Bannwarth, J. Chem. Phys., 2016, 145, 054103.
     DOI: 10.1063/1.4959605
   
   in the mass-spec context:
   * V. Asgeirsson, C. Bauer and S. Grimme, Chem. Sci., 2017, 8, 4879.
     DOI: 10.1039/c7sc00601b
   * J. Koopman and S. Grimme, ACS Omega 2019, 4, 12, 15120-15133.
     DOI: 10.1021/acsomega.9b02011
   
   for metadynamics refer to:
   * S. Grimme, J. Chem. Theory Comput., 2019, 155, 2847-2862
     DOI: 10.1021/acs.jctc.9b00143
   
   for SPH calculations refer to:
   * S. Spicher and S. Grimme, J. Chem. Theory Comput., 2021, 17, 1701-1714
     DOI: 10.1021/acs.jctc.0c01306
   
   with help from (in alphabetical order)
   P. Atkinson, C. Bannwarth, F. Bohle, G. Brandenburg, E. Caldeweyher
   M. Checinski, S. Dohm, S. Ehlert, S. Ehrlich, I. Gerasimov, J. Koopman
   C. Lavigne, S. Lehtola, F. März, M. Müller, F. Musil, H. Neugebauer
   J. Pisarek, C. Plett, P. Pracht, J. Seibert, P. Shushkov, S. Spicher
   M. Stahn, M. Steiner, T. Strunk, J. Stückrath, T. Rose, and J. Unsleber
   
 * started run on 2022/02/09 at 17:30:06.088     

           -------------------------------------------------
          |                Calculation Setup                |
           -------------------------------------------------

          program call               : /home/maihfly/anaconda3/envs/Cyclodextrins-env-4.0/bin/xtb pentane_opt_xtb.xyz --chrg 0 --uhf 0 --opt
          coordinate file            : pentane_opt_xtb.xyz
          omp threads                :                     4
          number of atoms            :                    17
          number of electrons        :                    32
          charge                     :                     0
          spin                       :                   0.0
          first test random number   :      0.30677827256449

   ID    Z sym.   atoms
    1    6 C      1-5
    2    1 H      6-17

           -------------------------------------------------
          |                 G F N 2 - x T B                 |
           -------------------------------------------------

        Reference                      10.1021/acs.jctc.8b01176
      * Hamiltonian:
        H0-scaling (s, p, d)           1.850000    2.230000    2.230000
        zeta-weighting                 0.500000
      * Dispersion:
        s8                             2.700000
        a1                             0.520000
        a2                             5.000000
        s9                             5.000000
      * Repulsion:
        kExp                           1.500000    1.000000
        rExp                           1.000000
      * Coulomb:
        alpha                          2.000000
        third order                    shell-resolved
        anisotropic                    true
        a3                             3.000000
        a5                             4.000000
        cn-shift                       1.200000
        cn-exp                         4.000000
        max-rad                        5.000000


          ...................................................
          :                      SETUP                      :
          :.................................................:
          :  # basis functions                  32          :
          :  # atomic orbitals                  32          :
          :  # shells                           22          :
          :  # electrons                        32          :
          :  max. iterations                   250          :
          :  Hamiltonian                  GFN2-xTB          :
          :  restarted?                      false          :
          :  GBSA solvation                  false          :
          :  PC potential                    false          :
          :  electronic temp.          300.0000000     K    :
          :  accuracy                    1.0000000          :
          :  -> integral cutoff          0.2500000E+02      :
          :  -> integral neglect         0.1000000E-07      :
          :  -> SCF convergence          0.1000000E-05 Eh   :
          :  -> wf. convergence          0.1000000E-03 e    :
          :  Broyden damping             0.4000000          :
          ...................................................

 iter      E             dE          RMSdq      gap      omega  full diag
   1    -16.9914151 -0.169914E+02  0.285E+00   13.11       0.0  T
   2    -17.0459529 -0.545378E-01  0.160E+00   13.25       1.0  T
   3    -17.0464189 -0.466043E-03  0.834E-01   13.17       1.0  T
   4    -17.0465694 -0.150502E-03  0.946E-02   13.08       1.0  T
   5    -17.0465748 -0.538507E-05  0.503E-02   13.09       1.0  T
   6    -17.0465761 -0.126103E-05  0.377E-03   13.09       6.4  T
   7    -17.0465761 -0.446263E-07  0.161E-03   13.09      15.0  T
   8    -17.0465761 -0.398435E-08  0.251E-04   13.09      96.5  T
   9    -17.0465761 -0.406004E-10  0.117E-04   13.09     206.8  T

   *** convergence criteria satisfied after 9 iterations ***

         #    Occupation            Energy/Eh            Energy/eV
      -------------------------------------------------------------
         1        2.0000           -0.6230706             -16.9546
       ...           ...                  ...                  ...
        10        2.0000           -0.4680427             -12.7361
        11        2.0000           -0.4591402             -12.4938
        12        2.0000           -0.4463448             -12.1457
        13        2.0000           -0.4324707             -11.7681
        14        2.0000           -0.4227709             -11.5042
        15        2.0000           -0.4178392             -11.3700
        16        2.0000           -0.4138602             -11.2617 (HOMO)
        17                          0.0670978               1.8258 (LUMO)
        18                          0.0775827               2.1111
        19                          0.1009593               2.7472
        20                          0.1139236               3.1000
        21                          0.1183786               3.2212
       ...                                ...                  ...
        32                          0.3100181               8.4360
      -------------------------------------------------------------
                  HL-Gap            0.4809580 Eh           13.0875 eV
             Fermi-level           -0.1733812 Eh           -4.7179 eV

 SCC (total)                   0 d,  0 h,  0 min,  0.009 sec
 SCC setup                      ...        0 min,  0.000 sec (  1.573%)
 Dispersion                     ...        0 min,  0.000 sec (  1.025%)
 classical contributions        ...        0 min,  0.000 sec (  0.336%)
 integral evaluation            ...        0 min,  0.001 sec (  6.937%)
 iterations                     ...        0 min,  0.006 sec ( 63.076%)
 molecular gradient             ...        0 min,  0.002 sec ( 24.797%)
 printout                       ...        0 min,  0.000 sec (  2.075%)

         :::::::::::::::::::::::::::::::::::::::::::::::::::::
         ::                     SUMMARY                     ::
         :::::::::::::::::::::::::::::::::::::::::::::::::::::
         :: total energy             -16.811994091372 Eh    ::
         :: gradient norm              0.089402745645 Eh/a0 ::
         :: HOMO-LUMO gap             13.087534241412 eV    ::
         ::.................................................::
         :: SCC energy               -17.046576118385 Eh    ::
         :: -> isotropic ES            0.002987709977 Eh    ::
         :: -> anisotropic ES          0.006747176807 Eh    ::
         :: -> anisotropic XC          0.012421795887 Eh    ::
         :: -> dispersion             -0.008287209153 Eh    ::
         :: repulsion energy           0.234580900738 Eh    ::
         :: add. restraining           0.000000000000 Eh    ::
         :: total charge              -0.000000000000 e     ::
         :::::::::::::::::::::::::::::::::::::::::::::::::::::

      ----------------------------------------------------------- 
     |                   =====================                   |
     |                        A N C O P T                        |
     |                   =====================                   |
     |               Approximate Normal Coordinate               |
     |                Rational Function Optimizer                |
      ----------------------------------------------------------- 

          ...................................................
          :                      SETUP                      :
          :.................................................:
          :   optimization level            normal          :
          :   max. optcycles                   200          :
          :   ANC micro-cycles                  20          :
          :   degrees of freedom                45          :
          :.................................................:
          :   RF solver                   davidson          :
          :   write xtbopt.log                true          :
          :   linear?                        false          :
          :   energy convergence         0.5000000E-05 Eh   :
          :   grad. convergence          0.1000000E-02 Eh/α :
          :   maximium RF displ.         1.0000000          :
          :   Hlow (freq-cutoff)         0.1000000E-01      :
          :   Hmax (freq-cutoff)         5.0000000          :
          :   S6 in model hess.         20.0000000          :
          ...................................................

generating ANC from model Hessian ...
Using Lindh-Hessian (1995)
 Shifting diagonal of input Hessian by    6.8308854012765997E-003
 Lowest  eigenvalues of input Hessian
    0.000000    0.000000    0.000000    0.000000    0.000000    0.000000
    0.010000    0.010594    0.011481    0.016819    0.017416    0.023062
    0.024252    0.043585    0.045915    0.054089    0.056474    0.057759
 Highest eigenvalues
    1.114571    1.137057    1.183301    1.239688    1.293513    1.349322


........................................................................
.............................. CYCLE    1 ..............................
........................................................................
   1    -17.0465761 -0.170466E+02  0.139E-05   13.09       0.0  T
   2    -17.0465761 -0.586198E-12  0.734E-06   13.09    3303.7  T
   3    -17.0465761 -0.213163E-13  0.337E-06   13.09    7194.7  T
     SCC iter.                  ...        0 min,  0.002 sec
     gradient                   ...        0 min,  0.002 sec
 * total energy  :   -16.8119941 Eh     change       -0.6661338E-11 Eh
   gradient norm :     0.0894026 Eh/α   predicted     0.0000000E+00 (-100.00%)
   displ. norm   :     0.3660330 α      lambda       -0.1678490E-01
   maximum displ.:     0.1747528 α      in ANC's #6, #9, #3, ...

........................................................................
.............................. CYCLE    2 ..............................
........................................................................
   1    -17.0732651 -0.170733E+02  0.409E-01   13.23       0.0  T
   2    -17.0733304 -0.653024E-04  0.243E-01   13.24       1.0  T
   3    -17.0733331 -0.266486E-05  0.217E-02   13.24       1.1  T
   4    -17.0733339 -0.759786E-06  0.664E-03   13.24       3.7  T
   5    -17.0733339 -0.518509E-07  0.339E-03   13.24       7.2  T
   6    -17.0733339 -0.818704E-08  0.474E-04   13.24      51.1  T
   7    -17.0733339 -0.320437E-09  0.163E-04   13.24     148.7  T
     SCC iter.                  ...        0 min,  0.012 sec
     gradient                   ...        0 min,  0.002 sec
 * total energy  :   -16.8225476 Eh     change       -0.1055346E-01 Eh
   gradient norm :     0.0336131 Eh/α   predicted    -0.9516870E-02 (  -9.82%)
   displ. norm   :     0.2799429 α      lambda       -0.3210217E-02
   maximum displ.:     0.1934915 α      in ANC's #3, #9, #4, ...

........................................................................
.............................. CYCLE    3 ..............................
........................................................................
   1    -17.0814702 -0.170815E+02  0.132E-01   13.12       0.0  T
   2    -17.0814847 -0.145211E-04  0.772E-02   13.12       1.0  T
   3    -17.0814852 -0.424754E-06  0.141E-02   13.12       1.7  T
   4    -17.0814853 -0.133383E-06  0.250E-03   13.12       9.7  T
   5    -17.0814853 -0.108605E-07  0.128E-03   13.12      18.9  T
   6    -17.0814853 -0.966818E-09  0.213E-04   13.12     113.9  T
   7    -17.0814853 -0.681375E-10  0.785E-05   13.12     309.0  T
     SCC iter.                  ...        0 min,  0.007 sec
     gradient                   ...        0 min,  0.002 sec
 * total energy  :   -16.8246650 Eh     change       -0.2117456E-02 Eh
   gradient norm :     0.0085372 Eh/α   predicted    -0.1730896E-02 ( -18.26%)
   displ. norm   :     0.3490422 α      lambda       -0.1362873E-02
   maximum displ.:     0.2533073 α      in ANC's #3, #4, #9, ...

........................................................................
.............................. CYCLE    4 ..............................
........................................................................
   1    -17.0809717 -0.170810E+02  0.101E-01   13.03       0.0  T
   2    -17.0809725 -0.843532E-06  0.602E-02   13.03       1.0  T
   3    -17.0809727 -0.138040E-06  0.339E-03   13.03       7.1  T
   4    -17.0809727 -0.532673E-07  0.153E-03   13.03      15.9  T
   5    -17.0809727 -0.230814E-08  0.384E-04   13.03      63.2  T
   6    -17.0809727 -0.530562E-10  0.141E-04   13.03     172.3  T
     SCC iter.                  ...        0 min,  0.002 sec
     gradient                   ...        0 min,  0.001 sec
 * total energy  :   -16.8257119 Eh     change       -0.1046877E-02 Eh
   gradient norm :     0.0097182 Eh/α   predicted    -0.7644564E-03 ( -26.98%)
   displ. norm   :     0.4828719 α      lambda       -0.1343038E-02
   maximum displ.:     0.3488208 α      in ANC's #4, #3, #1, ...

........................................................................
.............................. CYCLE    5 ..............................
........................................................................
   1    -17.0782847 -0.170783E+02  0.125E-01   13.00       0.0  T
   2    -17.0782867 -0.205272E-05  0.740E-02   13.00       1.0  T
   3    -17.0782870 -0.243661E-06  0.520E-03   13.00       4.7  T
   4    -17.0782871 -0.834181E-07  0.210E-03   13.00      11.5  T
   5    -17.0782871 -0.173936E-08  0.770E-04   13.00      31.5  T
   6    -17.0782871 -0.290928E-09  0.135E-04   13.00     179.2  T
     SCC iter.                  ...        0 min,  0.002 sec
     gradient                   ...        0 min,  0.001 sec
 * total energy  :   -16.8266754 Eh     change       -0.9634781E-03 Eh
   gradient norm :     0.0144098 Eh/α   predicted    -0.8280862E-03 ( -14.05%)
   displ. norm   :     0.3740511 α      lambda       -0.9761619E-03
   maximum displ.:     0.3057569 α      in ANC's #4, #3, #1, ...

........................................................................
.............................. CYCLE    6 ..............................
........................................................................
   1    -17.0784693 -0.170785E+02  0.960E-02   13.07       0.0  T
   2    -17.0784704 -0.102071E-05  0.573E-02   13.07       1.0  T
   3    -17.0784705 -0.114141E-06  0.322E-03   13.07       7.5  T
   4    -17.0784705 -0.329076E-07  0.137E-03   13.07      17.7  T
   5    -17.0784705 -0.625175E-09  0.497E-04   13.07      48.8  T
   6    -17.0784705 -0.149186E-09  0.734E-05   13.07     330.5  T
     SCC iter.                  ...        0 min,  0.003 sec
     gradient                   ...        0 min,  0.001 sec
 * total energy  :   -16.8274046 Eh     change       -0.7292781E-03 Eh
   gradient norm :     0.0153720 Eh/α   predicted    -0.5563731E-03 ( -23.71%)
   displ. norm   :     0.3210715 α      lambda       -0.1193991E-02
   maximum displ.:     0.2774856 α      in ANC's #4, #1, #30, ...

........................................................................
.............................. CYCLE    7 ..............................
........................................................................
   1    -17.0841061 -0.170841E+02  0.974E-02   13.26       0.0  T
   2    -17.0841071 -0.975363E-06  0.581E-02   13.26       1.0  T
   3    -17.0841072 -0.149050E-06  0.402E-03   13.26       6.0  T
   4    -17.0841073 -0.828622E-07  0.184E-03   13.26      13.2  T
   5    -17.0841073 -0.123051E-08  0.489E-04   13.26      49.5  T
   6    -17.0841073 -0.195826E-09  0.110E-04   13.26     220.0  T
     SCC iter.                  ...        0 min,  0.005 sec
     gradient                   ...        0 min,  0.001 sec
 * total energy  :   -16.8282286 Eh     change       -0.8239505E-03 Eh
   gradient norm :     0.0114118 Eh/α   predicted    -0.6585349E-03 ( -20.08%)
   displ. norm   :     0.3923687 α      lambda       -0.7928847E-03
   maximum displ.:     0.3534279 α      in ANC's #4, #1, #30, ...

........................................................................
.............................. CYCLE    8 ..............................
........................................................................
   1    -17.0814694 -0.170815E+02  0.107E-01   13.35       0.0  T
   2    -17.0814742 -0.474758E-05  0.634E-02   13.35       1.0  T
   3    -17.0814743 -0.179348E-06  0.761E-03   13.35       3.2  T
   4    -17.0814744 -0.857006E-07  0.181E-03   13.35      13.4  T
   5    -17.0814744 -0.227760E-08  0.894E-04   13.35      27.1  T
   6    -17.0814744 -0.339174E-09  0.113E-04   13.35     215.5  T
     SCC iter.                  ...        0 min,  0.003 sec
     gradient                   ...        0 min,  0.001 sec
 * total energy  :   -16.8286530 Eh     change       -0.4244124E-03 Eh
   gradient norm :     0.0157362 Eh/α   predicted    -0.4574825E-03 (   7.79%)
   displ. norm   :     0.1902828 α      lambda       -0.8519011E-03
   maximum displ.:     0.1324134 α      in ANC's #4, #3, #2, ...

........................................................................
.............................. CYCLE    9 ..............................
........................................................................
   1    -17.0880807 -0.170881E+02  0.941E-02   13.45       0.0  T
   2    -17.0880874 -0.672894E-05  0.532E-02   13.45       1.0  T
   3    -17.0880878 -0.397803E-06  0.123E-02   13.45       2.0  T
   4    -17.0880880 -0.210925E-06  0.298E-03   13.45       8.1  T
   5    -17.0880880 -0.462133E-08  0.144E-03   13.45      16.8  T
   6    -17.0880880 -0.119234E-08  0.205E-04   13.45     118.2  T
   7    -17.0880880 -0.895000E-10  0.790E-05   13.45     306.9  T
     SCC iter.                  ...        0 min,  0.005 sec
     gradient                   ...        0 min,  0.001 sec
 * total energy  :   -16.8290239 Eh     change       -0.3708423E-03 Eh
   gradient norm :     0.0092551 Eh/α   predicted    -0.4413740E-03 (  19.02%)
   displ. norm   :     0.2051637 α      lambda       -0.3522183E-03
   maximum displ.:     0.1760073 α      in ANC's #4, #1, #5, ...

........................................................................
.............................. CYCLE   10 ..............................
........................................................................
   1    -17.0859991 -0.170860E+02  0.691E-02   13.39       0.0  T
   2    -17.0860019 -0.279932E-05  0.399E-02   13.39       1.0  T
   3    -17.0860020 -0.172636E-06  0.735E-03   13.39       3.3  T
   4    -17.0860021 -0.468983E-07  0.178E-03   13.39      13.6  T
   5    -17.0860021 -0.820290E-09  0.651E-04   13.39      37.2  T
   6    -17.0860021 -0.560423E-09  0.948E-05   13.39     255.9  T
     SCC iter.                  ...        0 min,  0.003 sec
     gradient                   ...        0 min,  0.001 sec
 * total energy  :   -16.8291943 Eh     change       -0.1704853E-03 Eh
   gradient norm :     0.0100415 Eh/α   predicted    -0.1835211E-03 (   7.65%)
   displ. norm   :     0.1839162 α      lambda       -0.2526774E-03
   maximum displ.:     0.1434545 α      in ANC's #4, #1, #2, ...

........................................................................
.............................. CYCLE   11 ..............................
........................................................................
   1    -17.0819410 -0.170819E+02  0.691E-02   13.29       0.0  T
   2    -17.0819448 -0.386768E-05  0.394E-02   13.29       1.0  T
   3    -17.0819450 -0.203452E-06  0.926E-03   13.29       2.6  T
   4    -17.0819451 -0.855260E-07  0.207E-03   13.29      11.7  T
   5    -17.0819451 -0.141235E-08  0.947E-04   13.29      25.6  T
   6    -17.0819451 -0.771347E-09  0.993E-05   13.29     244.3  T
     SCC iter.                  ...        0 min,  0.003 sec
     gradient                   ...        0 min,  0.001 sec
 * total energy  :   -16.8291945 Eh     change       -0.2061854E-06 Eh
   gradient norm :     0.0099348 Eh/α   predicted    -0.1306111E-03 (*******%)
   displ. norm   :     0.1074619 α      lambda       -0.3039430E-03
   maximum displ.:     0.0871264 α      in ANC's #4, #3, #2, ...

........................................................................
.............................. CYCLE   12 ..............................
........................................................................
   1    -17.0872172 -0.170872E+02  0.511E-02   13.29       0.0  T
   2    -17.0872213 -0.412208E-05  0.282E-02   13.30       1.0  T
   3    -17.0872215 -0.140314E-06  0.885E-03   13.30       2.7  T
   4    -17.0872215 -0.390261E-07  0.162E-03   13.30      15.0  T
   5    -17.0872215 -0.207030E-08  0.882E-04   13.30      27.5  T
   6    -17.0872215 -0.249550E-09  0.743E-05   13.30     326.6  T
     SCC iter.                  ...        0 min,  0.003 sec
     gradient                   ...        0 min,  0.002 sec
 * total energy  :   -16.8293158 Eh     change       -0.1212593E-03 Eh
   gradient norm :     0.0044686 Eh/α   predicted    -0.1537257E-03 (  26.77%)
   displ. norm   :     0.0663402 α      lambda       -0.6650441E-04
   maximum displ.:     0.0496754 α      in ANC's #4, #3, #1, ...

........................................................................
.............................. CYCLE   13 ..............................
........................................................................
   1    -17.0868542 -0.170869E+02  0.258E-02   13.33       0.0  T
   2    -17.0868545 -0.312475E-06  0.153E-02   13.33       1.6  T
   3    -17.0868545 -0.166545E-07  0.178E-03   13.33      13.6  T
   4    -17.0868545 -0.263505E-08  0.495E-04   13.33      49.0  T
   5    -17.0868545 -0.193946E-09  0.166E-04   13.33     146.5  T
     SCC iter.                  ...        0 min,  0.002 sec
     gradient                   ...        0 min,  0.003 sec
 * total energy  :   -16.8293501 Eh     change       -0.3427834E-04 Eh
   gradient norm :     0.0028665 Eh/α   predicted    -0.3339724E-04 (  -2.57%)
   displ. norm   :     0.0567413 α      lambda       -0.2430714E-04
   maximum displ.:     0.0344947 α      in ANC's #4, #1, #3, ...

........................................................................
.............................. CYCLE   14 ..............................
........................................................................
   1    -17.0866426 -0.170866E+02  0.149E-02   13.33       0.0  T
   2    -17.0866427 -0.411899E-07  0.883E-03   13.33       2.7  T
   3    -17.0866427 -0.344200E-08  0.761E-04   13.33      31.9  T
   4    -17.0866427 -0.184481E-08  0.268E-04   13.33      90.4  T
     SCC iter.                  ...        0 min,  0.002 sec
     gradient                   ...        0 min,  0.001 sec
 * total energy  :   -16.8293684 Eh     change       -0.1833247E-04 Eh
   gradient norm :     0.0018982 Eh/α   predicted    -0.1219156E-04 ( -33.50%)
   displ. norm   :     0.1427329 α      lambda       -0.3325845E-04
   maximum displ.:     0.0992756 α      in ANC's #1, #3, #4, ...

........................................................................
.............................. CYCLE   15 ..............................
........................................................................
   1    -17.0869532 -0.170870E+02  0.348E-02   13.33       0.0  T
   2    -17.0869533 -0.163490E-06  0.206E-02   13.33       1.2  T
   3    -17.0869533 -0.218325E-07  0.134E-03   13.33      18.1  T
   4    -17.0869533 -0.416527E-08  0.584E-04   13.33      41.5  T
   5    -17.0869533 -0.195627E-09  0.172E-04   13.33     140.8  T
     SCC iter.                  ...        0 min,  0.002 sec
     gradient                   ...        0 min,  0.001 sec
 * total energy  :   -16.8293888 Eh     change       -0.2040741E-04 Eh
   gradient norm :     0.0016976 Eh/α   predicted    -0.1677922E-04 ( -17.78%)
   displ. norm   :     0.0362014 α      lambda       -0.1143518E-04
   maximum displ.:     0.0225580 α      in ANC's #1, #4, #5, ...

........................................................................
.............................. CYCLE   16 ..............................
........................................................................
   1    -17.0873618 -0.170874E+02  0.119E-02   13.33       0.0  T
   2    -17.0873619 -0.549827E-07  0.692E-03   13.33       3.5  T
   3    -17.0873619 -0.455730E-08  0.982E-04   13.33      24.7  T
   4    -17.0873619 -0.156390E-08  0.303E-04   13.33      80.1  T
     SCC iter.                  ...        0 min,  0.002 sec
     gradient                   ...        0 min,  0.001 sec
 * total energy  :   -16.8293984 Eh     change       -0.9590925E-05 Eh
   gradient norm :     0.0018972 Eh/α   predicted    -0.5719391E-05 ( -40.37%)
   displ. norm   :     0.0558260 α      lambda       -0.1014633E-04
   maximum displ.:     0.0440898 α      in ANC's #4, #1, #2, ...

........................................................................
.............................. CYCLE   17 ..............................
........................................................................
   1    -17.0875453 -0.170875E+02  0.143E-02   13.34       0.0  T
   2    -17.0875453 -0.130625E-07  0.857E-03   13.34       2.8  T
   3    -17.0875453 -0.238539E-08  0.467E-04   13.34      52.0  T
   4    -17.0875453 -0.104884E-08  0.220E-04   13.34     110.2  T
     SCC iter.                  ...        0 min,  0.002 sec
     gradient                   ...        0 min,  0.001 sec
 * total energy  :   -16.8294096 Eh     change       -0.1114374E-04 Eh
   gradient norm :     0.0015361 Eh/α   predicted    -0.5081374E-05 ( -54.40%)
   displ. norm   :     0.1209340 α      lambda       -0.1821546E-04
   maximum displ.:     0.0898149 α      in ANC's #1, #4, #2, ...

........................................................................
.............................. CYCLE   18 ..............................
........................................................................
   1    -17.0865052 -0.170865E+02  0.297E-02   13.33       0.0  T
   2    -17.0865054 -0.177606E-06  0.175E-02   13.33       1.4  T
   3    -17.0865054 -0.131323E-07  0.138E-03   13.33      17.6  T
   4    -17.0865054 -0.449197E-08  0.479E-04   13.33      50.6  T
   5    -17.0865054 -0.860858E-10  0.222E-04   13.33     109.4  T
     SCC iter.                  ...        0 min,  0.002 sec
     gradient                   ...        0 min,  0.001 sec
 * total energy  :   -16.8294196 Eh     change       -0.1009353E-04 Eh
   gradient norm :     0.0024143 Eh/α   predicted    -0.9165802E-05 (  -9.19%)
   displ. norm   :     0.0202769 α      lambda       -0.8506489E-05
   maximum displ.:     0.0132334 α      in ANC's #4, #1, #2, ...

........................................................................
.............................. CYCLE   19 ..............................
........................................................................
   1    -17.0867131 -0.170867E+02  0.766E-03   13.33       0.0  T
   2    -17.0867132 -0.516150E-07  0.435E-03   13.33       5.6  T
   3    -17.0867132 -0.271149E-08  0.104E-03   13.33      23.4  T
   4    -17.0867132 -0.857646E-09  0.227E-04   13.33     106.7  T
   5    -17.0867132 -0.255653E-10  0.928E-05   13.33     261.2  T
     SCC iter.                  ...        0 min,  0.002 sec
     gradient                   ...        0 min,  0.002 sec
 * total energy  :   -16.8294249 Eh     change       -0.5212765E-05 Eh
   gradient norm :     0.0010177 Eh/α   predicted    -0.4254183E-05 ( -18.39%)
   displ. norm   :     0.0227987 α      lambda       -0.4484395E-05
   maximum displ.:     0.0149451 α      in ANC's #4, #2, #30, ...

........................................................................
.............................. CYCLE   20 ..............................
........................................................................
   1    -17.0871012 -0.170871E+02  0.666E-03   13.34       0.0  T
   2    -17.0871012 -0.203715E-07  0.391E-03   13.34       6.2  T
   3    -17.0871012 -0.125960E-08  0.538E-04   13.34      45.1  T
   4    -17.0871012 -0.224617E-09  0.140E-04   13.34     173.8  T
     SCC iter.                  ...        0 min,  0.002 sec
     gradient                   ...        0 min,  0.001 sec
 * total energy  :   -16.8294289 Eh     change       -0.3993174E-05 Eh
   gradient norm :     0.0010368 Eh/α   predicted    -0.2243043E-05 ( -43.83%)
   displ. norm   :     0.0306068 α      lambda       -0.4518876E-05
   maximum displ.:     0.0192225 α      in ANC's #2, #4, #3, ...
 * RMSD in coord.:     0.6324130 α      energy gain  -0.1743476E-01 Eh

generating ANC from model Hessian ...
Using Lindh-Hessian (1995)
 Shifting diagonal of input Hessian by    6.7086892720355090E-003
 Lowest  eigenvalues of input Hessian
    0.000000    0.000000    0.000000    0.000000    0.000000    0.000000
    0.010000    0.010500    0.010933    0.017394    0.017916    0.022049
    0.022622    0.046110    0.047870    0.054528    0.057922    0.060456
 Highest eigenvalues
    1.169605    1.185931    1.203687    1.213804    1.240854    1.299466


........................................................................
.............................. CYCLE   21 ..............................
........................................................................
   1    -17.0873411 -0.170873E+02  0.988E-03   13.34       0.0  T
   2    -17.0873411 -0.201237E-07  0.585E-03   13.34       4.1  T
   3    -17.0873411 -0.168599E-08  0.573E-04   13.34      42.3  T
   4    -17.0873411 -0.123537E-08  0.200E-04   13.34     121.3  T
     SCC iter.                  ...        0 min,  0.002 sec
     gradient                   ...        0 min,  0.001 sec
 * total energy  :   -16.8294330 Eh     change       -0.4157595E-05 Eh
   gradient norm :     0.0009196 Eh/α   predicted     0.0000000E+00 (-100.00%)
   displ. norm   :     0.0244433 α      lambda       -0.4930871E-05
   maximum displ.:     0.0210665 α      in ANC's #2, #1, #5, ...

   *** GEOMETRY OPTIMIZATION CONVERGED AFTER 21 ITERATIONS ***

------------------------------------------------------------------------
 total energy gain   :        -0.0174389 Eh      -10.9431 kcal/mol
 total RMSD          :         0.6324130 a0        0.3347 Å
 total power (kW/mol):        -2.1802799 (step) -344.6683 (real)
------------------------------------------------------------------------

 ANCopt (total)                0 d,  0 h,  0 min,  0.133 sec
 optimizer setup                ...        0 min,  0.000 sec (  0.059%)
 model hessian                  ...        0 min,  0.010 sec (  7.757%)
 ANC generation                 ...        0 min,  0.001 sec (  0.675%)
 coordinate transformation      ...        0 min,  0.000 sec (  0.152%)
 single point calculation       ...        0 min,  0.114 sec ( 86.065%)
 optimization log               ...        0 min,  0.002 sec (  1.519%)
 hessian update                 ...        0 min,  0.000 sec (  0.190%)
 rational function              ...        0 min,  0.004 sec (  2.794%)

================
 final structure:
================
17
 xtb: 6.4.1 (23d549d)
C        -2.50060151095481    0.40603181643689   -0.24229659079450
C        -1.29412459215292   -0.48870559480654    0.01423601827786
C         0.01517599209533    0.29438576249079   -0.03710966020044
C         1.23381371028331   -0.60328127735356    0.16324940642729
C         2.53434924402995    0.19061425325270    0.13874556080321
H        -2.44025522326918    0.85257581747029   -1.23182924139579
H        -2.54373300186837    1.20906324306247    0.49024402573421
H        -3.42325009266036   -0.16620591390664   -0.18062077276100
H        -1.39410281254354   -0.96044434358364    0.99404224479559
H        -1.26806458669204   -1.28406719352697   -0.73456785378788
H         0.00404344131084    1.06538958032157    0.73700188200886
H         0.09573225878891    0.79820564514273   -1.00321804312488
H         1.25640092469191   -1.35979620092217   -0.62489926907529
H         1.14514056502028   -1.12510105875409    1.11902967861070
H         2.64251362467669    0.71630726886246   -0.80732873363753
H         3.38885768432383   -0.47024431063167    0.26452279185089
H         2.54808437492008    0.92529250644532    0.94079855626866

 Bond Distances (Angstroems)
 ---------------------------
C1-C2=1.5238         C1-H6=1.0873         C1-H7=1.0878         C1-H8=1.0874         C2-C1=1.5238         C2-C3=1.5265         
C2-H9=1.0920         C2-H10=1.0927        C3-C2=1.5265         C3-C4=1.5268         C3-H11=1.0926        C3-H12=1.0926        
C4-C3=1.5268         C4-C5=1.5239         C4-H13=1.0927        C4-H14=1.0926        C5-C4=1.5239         C5-H15=1.0877        
C5-H16=1.0875        C5-H17=1.0878        H6-C1=1.0873         H7-C1=1.0878         H8-C1=1.0874         H9-C2=1.0920         
H10-C2=1.0927        H11-C3=1.0926        H12-C3=1.0926        H13-C4=1.0927        H14-C4=1.0926        H15-C5=1.0877        
H16-C5=1.0875        H17-C5=1.0878        
 C  H  Rav=1.0901 sigma=0.0025  Rmin=1.0873  Rmax=1.0927    12
 C  C  Rav=1.5252 sigma=0.0014  Rmin=1.5238  Rmax=1.5268     4

 selected bond angles (degree)
 --------------------
H6-C1-C2=110.51                H7-C1-C2=110.58                H7-C1-H6=108.17                H8-C1-C2=110.69                
H8-C1-H6=108.35                H8-C1-H7=108.46                C3-C2-C1=111.85                H9-C2-C1=109.40                
H9-C2-C3=109.29                H10-C2-C1=109.32               H10-C2-C3=109.26               H10-C2-H9=107.61               
C4-C3-C2=112.25                H11-C3-C2=109.23               H11-C3-C4=109.27               H12-C3-C2=109.24               
H12-C3-C4=109.17               H12-C3-H11=107.57              C5-C4-C3=111.89                H13-C4-C3=109.20               
H13-C4-C5=109.36               H14-C4-C3=109.32               H14-C4-C5=109.40               H14-C4-H13=107.58              
H15-C5-C4=110.53               H16-C5-C4=110.62               H16-C5-H15=108.43              H17-C5-C4=110.54               
H17-C5-H15=108.28              H17-C5-H16=108.37              

 selected dihedral angles (degree)
 ---------------------------------
C3-C2-C1-H6= 61.16            C3-C2-C1-H7=301.41            C3-C2-C1-H8=181.20            H9-C2-C1-H6=182.39            
H9-C2-C1-H7= 62.65            H9-C2-C1-H8=302.43            H10-C2-C1-H6=300.01           H10-C2-C1-H7=180.26           
H10-C2-C1-H8= 60.04           C4-C3-C2-C1=182.29            C4-C3-C2-H9= 60.99            C4-C3-C2-H10=303.48           
H11-C3-C2-C1= 60.93           H11-C3-C2-H9=299.63           H11-C3-C2-H10=182.12          H12-C3-C2-C1=303.52           
H12-C3-C2-H9=182.22           H12-C3-C2-H10= 64.71          C5-C4-C3-C2=181.16            C5-C4-C3-H11=302.49           
C5-C4-C3-H12= 59.88           H13-C4-C3-C2= 59.95           H13-C4-C3-H11=181.29          H13-C4-C3-H12=298.68          
H14-C4-C3-C2=302.50           H14-C4-C3-H11= 63.84          H14-C4-C3-H12=181.23          H15-C5-C4-C3=301.16           
H15-C5-C4-H13= 62.28          H15-C5-C4-H14=179.86          H16-C5-C4-C3=181.06           H16-C5-C4-H13=302.18          
H16-C5-C4-H14= 59.76          H17-C5-C4-C3= 61.02           H17-C5-C4-H13=182.14          H17-C5-C4-H14=299.72          
           -------------------------------------------------
          |                Final Singlepoint                |
           -------------------------------------------------

          ...................................................
          :                      SETUP                      :
          :.................................................:
          :  # basis functions                  32          :
          :  # atomic orbitals                  32          :
          :  # shells                           22          :
          :  # electrons                        32          :
          :  max. iterations                   250          :
          :  Hamiltonian                  GFN2-xTB          :
          :  restarted?                      false          :
          :  GBSA solvation                  false          :
          :  PC potential                    false          :
          :  electronic temp.          300.0000000     K    :
          :  accuracy                    1.0000000          :
          :  -> integral cutoff          0.2500000E+02      :
          :  -> integral neglect         0.1000000E-07      :
          :  -> SCF convergence          0.1000000E-05 Eh   :
          :  -> wf. convergence          0.1000000E-03 e    :
          :  Broyden damping             0.4000000          :
          ...................................................

 iter      E             dE          RMSdq      gap      omega  full diag
   1    -17.0873411 -0.170873E+02  0.645E-05   13.34       0.0  T
   2    -17.0873411 -0.379785E-11  0.355E-05   13.34     682.7  T
   3    -17.0873411 -0.174083E-12  0.993E-06   13.34    2443.2  T

   *** convergence criteria satisfied after 3 iterations ***

         #    Occupation            Energy/Eh            Energy/eV
      -------------------------------------------------------------
         1        2.0000           -0.6200110             -16.8714
       ...           ...                  ...                  ...
        10        2.0000           -0.4689698             -12.7613
        11        2.0000           -0.4566113             -12.4250
        12        2.0000           -0.4477419             -12.1837
        13        2.0000           -0.4294701             -11.6865
        14        2.0000           -0.4287617             -11.6672
        15        2.0000           -0.4239281             -11.5357
        16        2.0000           -0.4177498             -11.3676 (HOMO)
        17                          0.0724991               1.9728 (LUMO)
        18                          0.1193552               3.2478
        19                          0.1195132               3.2521
        20                          0.1398500               3.8055
        21                          0.1588585               4.3228
       ...                                ...                  ...
        32                          0.3170440               8.6272
      -------------------------------------------------------------
                  HL-Gap            0.4902489 Eh           13.3404 eV
             Fermi-level           -0.1726254 Eh           -4.6974 eV

 SCC (total)                   0 d,  0 h,  0 min,  0.005 sec
 SCC setup                      ...        0 min,  0.000 sec (  1.752%)
 Dispersion                     ...        0 min,  0.000 sec (  1.457%)
 classical contributions        ...        0 min,  0.000 sec (  0.324%)
 integral evaluation            ...        0 min,  0.000 sec ( 10.531%)
 iterations                     ...        0 min,  0.002 sec ( 38.250%)
 molecular gradient             ...        0 min,  0.002 sec ( 41.078%)
 printout                       ...        0 min,  0.000 sec (  5.905%)

         :::::::::::::::::::::::::::::::::::::::::::::::::::::
         ::                     SUMMARY                     ::
         :::::::::::::::::::::::::::::::::::::::::::::::::::::
         :: total energy             -16.829433010984 Eh    ::
         :: gradient norm              0.000919259283 Eh/a0 ::
         :: HOMO-LUMO gap             13.340351515094 eV    ::
         ::.................................................::
         :: SCC energy               -17.087341077190 Eh    ::
         :: -> isotropic ES            0.003452416223 Eh    ::
         :: -> anisotropic ES          0.005850716838 Eh    ::
         :: -> anisotropic XC          0.010889789536 Eh    ::
         :: -> dispersion             -0.008205232236 Eh    ::
         :: repulsion energy           0.257905543539 Eh    ::
         :: add. restraining           0.000000000000 Eh    ::
         :: total charge              -0.000000000000 e     ::
         :::::::::::::::::::::::::::::::::::::::::::::::::::::

           -------------------------------------------------
          |                Property Printout                |
           -------------------------------------------------

    * Orbital Energies and Occupations

         #    Occupation            Energy/Eh            Energy/eV
      -------------------------------------------------------------
         1        2.0000           -0.6200110             -16.8714
       ...           ...                  ...                  ...
         4        2.0000           -0.5569333             -15.1549
         5        2.0000           -0.5528317             -15.0433
         6        2.0000           -0.5174427             -14.0803
         7        2.0000           -0.4988778             -13.5752
         8        2.0000           -0.4919363             -13.3863
         9        2.0000           -0.4815739             -13.1043
        10        2.0000           -0.4689698             -12.7613
        11        2.0000           -0.4566113             -12.4250
        12        2.0000           -0.4477419             -12.1837
        13        2.0000           -0.4294701             -11.6865
        14        2.0000           -0.4287617             -11.6672
        15        2.0000           -0.4239281             -11.5357
        16        2.0000           -0.4177498             -11.3676 (HOMO)
        17                          0.0724991               1.9728 (LUMO)
        18                          0.1193552               3.2478
        19                          0.1195132               3.2521
        20                          0.1398500               3.8055
        21                          0.1588585               4.3228
        22                          0.1737172               4.7271
        23                          0.1738490               4.7307
        24                          0.1815872               4.9412
        25                          0.1888926               5.1400
        26                          0.1978045               5.3825
        27                          0.2349313               6.3928
       ...                                ...                  ...
        32                          0.3170440               8.6272
      -------------------------------------------------------------
                  HL-Gap            0.4902489 Eh           13.3404 eV
             Fermi-level           -0.1726254 Eh           -4.6974 eV

     #   Z          covCN         q      C6AA      α(0)
     1   6 C        3.752    -0.102    22.507     6.765
     2   6 C        3.801    -0.053    21.525     6.606
     3   6 C        3.803    -0.060    21.646     6.624
     4   6 C        3.801    -0.053    21.525     6.606
     5   6 C        3.752    -0.102    22.506     6.765
     6   1 H        0.925     0.033     2.544     2.494
     7   1 H        0.925     0.033     2.542     2.493
     8   1 H        0.925     0.032     2.554     2.499
     9   1 H        0.924     0.028     2.616     2.529
    10   1 H        0.924     0.028     2.615     2.529
    11   1 H        0.924     0.030     2.583     2.513
    12   1 H        0.924     0.030     2.580     2.512
    13   1 H        0.924     0.028     2.618     2.530
    14   1 H        0.924     0.028     2.616     2.529
    15   1 H        0.925     0.033     2.541     2.493
    16   1 H        0.925     0.032     2.554     2.499
    17   1 H        0.925     0.033     2.544     2.494

 Mol. C6AA /au·bohr⁶  :       1815.687072
 Mol. C8AA /au·bohr⁸  :      37105.950682
 Mol. α(0) /au        :         63.481360


Wiberg/Mayer (AO) data.
largest (>0.10) Wiberg bond orders for each atom

 ---------------------------------------------------------------------------
     #   Z sym  total        # sym  WBO       # sym  WBO       # sym  WBO
 ---------------------------------------------------------------------------
     1   6 C    3.997 --     2 C    1.019     6 H    0.988     7 H    0.988
                             8 H    0.988
     2   6 C    3.998 --     1 C    1.019     3 C    1.008     9 H    0.979
                            10 H    0.979
     3   6 C    3.997 --     2 C    1.008     4 C    1.008    11 H    0.978
                            12 H    0.977
     4   6 C    3.998 --     5 C    1.019     3 C    1.008    13 H    0.979
                            14 H    0.979
     5   6 C    3.997 --     4 C    1.019    17 H    0.988    15 H    0.988
                            16 H    0.988
     6   1 H    0.999 --     1 C    0.988
     7   1 H    0.999 --     1 C    0.988
     8   1 H    0.999 --     1 C    0.988
     9   1 H    0.999 --     2 C    0.979
    10   1 H    0.999 --     2 C    0.979
    11   1 H    0.999 --     3 C    0.978
    12   1 H    0.999 --     3 C    0.977
    13   1 H    0.999 --     4 C    0.979
    14   1 H    0.999 --     4 C    0.979
    15   1 H    0.999 --     5 C    0.988
    16   1 H    0.999 --     5 C    0.988
    17   1 H    0.999 --     5 C    0.988
 ---------------------------------------------------------------------------

Topologies differ in total number of bonds
Writing topology from bond orders to xtbtopo.mol

molecular dipole:
                 x           y           z       tot (Debye)
 q only:        0.001       0.011      -0.002
   full:        0.001       0.010      -0.002       0.027
molecular quadrupole (traceless):
                xx          xy          yy          xz          yz          zz
 q only:        0.239      -0.006      -0.006       0.035      -0.040      -0.232
  q+dip:       -1.259       0.040       0.044      -0.177       0.199       1.216
   full:       -0.529       0.015      -0.001      -0.074       0.089       0.530

           -------------------------------------------------
          |                Geometry Summary                 |
           -------------------------------------------------

      molecular mass/u    :       72.1489685
   center of mass at/Å    :       -0.0017368      -0.0306456       0.0056158
  moments of inertia/u·Å² :        0.2977555E+02   0.2561516E+03   0.2702399E+03
rotational constants/cm⁻¹ :        0.5661568E+00   0.6581117E-01   0.6238026E-01

 * 16 selected distances

     #   Z          #   Z                                           value/Å
     1   6 C        2   6 C                                       1.5237948
     2   6 C        3   6 C                                       1.5264785
     3   6 C        4   6 C                                       1.5267704 (max)
     4   6 C        5   6 C                                       1.5238974
     1   6 C        6   1 H                                       1.0872985 (min)
     1   6 C        7   1 H                                       1.0878123
     1   6 C        8   1 H                                       1.0874467
     2   6 C        9   1 H                                       1.0920409
     2   6 C       10   1 H                                       1.0926969
     3   6 C       11   1 H                                       1.0926205
     3   6 C       12   1 H                                       1.0925608
     4   6 C       13   1 H                                       1.0927046
     4   6 C       14   1 H                                       1.0925542
     5   6 C       15   1 H                                       1.0877083
     5   6 C       16   1 H                                       1.0875379
     5   6 C       17   1 H                                       1.0877637

 * 2 distinct bonds (by element types)

   Z      Z             #   av. dist./Å        max./Å        min./Å
   1 H    6 C          12     1.0900621     1.0927046     1.0872985
   6 C    6 C           4     1.5252352     1.5267704     1.5237948


optimized geometry written to: xtbopt.xyz


           -------------------------------------------------
          | TOTAL ENERGY              -16.829433010984 Eh   |
          | GRADIENT NORM               0.000919259283 Eh/α |
          | HOMO-LUMO GAP              13.340351515094 eV   |
           -------------------------------------------------

------------------------------------------------------------------------
 * finished run on 2022/02/09 at 17:30:06.246     
------------------------------------------------------------------------
 total:
 * wall-time:     0 d,  0 h,  0 min,  0.158 sec
 *  cpu-time:     0 d,  0 h,  0 min,  1.066 sec
 * ratio c/w:     6.724 speedup
 SCF:
 * wall-time:     0 d,  0 h,  0 min,  0.009 sec
 *  cpu-time:     0 d,  0 h,  0 min,  0.041 sec
 * ratio c/w:     4.531 speedup
 ANC optimizer:
 * wall-time:     0 d,  0 h,  0 min,  0.138 sec
 *  cpu-time:     0 d,  0 h,  0 min,  0.946 sec
 * ratio c/w:     6.838 speedup

