      -----------------------------------------------------------      
     |                   =====================                   |     
     |                           x T B                           |     
     |                   =====================                   |     
     |                         S. Grimme                         |     
     |          Mulliken Center for Theoretical Chemistry        |     
     |                    University of Bonn                     |     
      -----------------------------------------------------------      

   * xtb version 6.4.1 (23d549d) compiled by 'conda@3c73975816cd' on 2022-01-07

   xtb is free software: you can redistribute it and/or modify it under
   the terms of the GNU Lesser General Public License as published by
   the Free Software Foundation, either version 3 of the License, or
   (at your option) any later version.
   
   xtb is distributed in the hope that it will be useful,
   but WITHOUT ANY WARRANTY; without even the implied warranty of
   MERCHANTABILITY or FITNESS FOR A PARTICULAR PURPOSE.  See the
   GNU Lesser General Public License for more details.
   
   Cite this work as:
   * C. Bannwarth, E. Caldeweyher, S. Ehlert, A. Hansen, P. Pracht,
     J. Seibert, S. Spicher, S. Grimme, WIREs Comput. Mol. Sci., 2020, 11,
     e01493. DOI: 10.1002/wcms.1493
   
   for GFN2-xTB:
   * C. Bannwarth, S. Ehlert and S. Grimme., J. Chem. Theory Comput., 2019,
     15, 1652-1671. DOI: 10.1021/acs.jctc.8b01176
   for GFN1-xTB:
   * S. Grimme, C. Bannwarth, P. Shushkov, J. Chem. Theory Comput., 2017,
     13, 1989-2009. DOI: 10.1021/acs.jctc.7b00118
   for GFN0-xTB:
   * P. Pracht, E. Caldeweyher, S. Ehlert, S. Grimme, ChemRxiv, 2019, preprint.
     DOI: 10.26434/chemrxiv.8326202.v1
   for GFN-FF:
   * S. Spicher and S. Grimme, Angew. Chem. Int. Ed., 2020, 59, 15665-15673.
     DOI: 10.1002/anie.202004239
   
   for DFT-D4:
   * E. Caldeweyher, C. Bannwarth and S. Grimme, J. Chem. Phys., 2017,
     147, 034112. DOI: 10.1063/1.4993215
   * E. Caldeweyher, S. Ehlert, A. Hansen, H. Neugebauer, S. Spicher,
     C. Bannwarth and S. Grimme, J. Chem. Phys., 2019, 150, 154122.
     DOI: 10.1063/1.5090222
   * E. Caldeweyher, J.-M. Mewes, S. Ehlert and S. Grimme, Phys. Chem. Chem. Phys.
     2020, 22, 8499-8512. DOI: 10.1039/D0CP00502A
   
   for sTDA-xTB:
   * S. Grimme and C. Bannwarth, J. Chem. Phys., 2016, 145, 054103.
     DOI: 10.1063/1.4959605
   
   in the mass-spec context:
   * V. Asgeirsson, C. Bauer and S. Grimme, Chem. Sci., 2017, 8, 4879.
     DOI: 10.1039/c7sc00601b
   * J. Koopman and S. Grimme, ACS Omega 2019, 4, 12, 15120-15133.
     DOI: 10.1021/acsomega.9b02011
   
   for metadynamics refer to:
   * S. Grimme, J. Chem. Theory Comput., 2019, 155, 2847-2862
     DOI: 10.1021/acs.jctc.9b00143
   
   for SPH calculations refer to:
   * S. Spicher and S. Grimme, J. Chem. Theory Comput., 2021, 17, 1701-1714
     DOI: 10.1021/acs.jctc.0c01306
   
   with help from (in alphabetical order)
   P. Atkinson, C. Bannwarth, F. Bohle, G. Brandenburg, E. Caldeweyher
   M. Checinski, S. Dohm, S. Ehlert, S. Ehrlich, I. Gerasimov, J. Koopman
   C. Lavigne, S. Lehtola, F. März, M. Müller, F. Musil, H. Neugebauer
   J. Pisarek, C. Plett, P. Pracht, J. Seibert, P. Shushkov, S. Spicher
   M. Stahn, M. Steiner, T. Strunk, J. Stückrath, T. Rose, and J. Unsleber
   
 * started run on 2022/02/09 at 17:30:04.573     

           -------------------------------------------------
          |                Calculation Setup                |
           -------------------------------------------------

          program call               : /home/maihfly/anaconda3/envs/Cyclodextrins-env-4.0/bin/xtb propane_opt_xtb.xyz --chrg 0 --uhf 0 --opt
          coordinate file            : propane_opt_xtb.xyz
          omp threads                :                     4
          number of atoms            :                    11
          number of electrons        :                    20
          charge                     :                     0
          spin                       :                   0.0
          first test random number   :      0.25510979219806

   ID    Z sym.   atoms
    1    6 C      1-3
    2    1 H      4-11

           -------------------------------------------------
          |                 G F N 2 - x T B                 |
           -------------------------------------------------

        Reference                      10.1021/acs.jctc.8b01176
      * Hamiltonian:
        H0-scaling (s, p, d)           1.850000    2.230000    2.230000
        zeta-weighting                 0.500000
      * Dispersion:
        s8                             2.700000
        a1                             0.520000
        a2                             5.000000
        s9                             5.000000
      * Repulsion:
        kExp                           1.500000    1.000000
        rExp                           1.000000
      * Coulomb:
        alpha                          2.000000
        third order                    shell-resolved
        anisotropic                    true
        a3                             3.000000
        a5                             4.000000
        cn-shift                       1.200000
        cn-exp                         4.000000
        max-rad                        5.000000


          ...................................................
          :                      SETUP                      :
          :.................................................:
          :  # basis functions                  20          :
          :  # atomic orbitals                  20          :
          :  # shells                           14          :
          :  # electrons                        20          :
          :  max. iterations                   250          :
          :  Hamiltonian                  GFN2-xTB          :
          :  restarted?                      false          :
          :  GBSA solvation                  false          :
          :  PC potential                    false          :
          :  electronic temp.          300.0000000     K    :
          :  accuracy                    1.0000000          :
          :  -> integral cutoff          0.2500000E+02      :
          :  -> integral neglect         0.1000000E-07      :
          :  -> SCF convergence          0.1000000E-05 Eh   :
          :  -> wf. convergence          0.1000000E-03 e    :
          :  Broyden damping             0.4000000          :
          ...................................................

 iter      E             dE          RMSdq      gap      omega  full diag
   1    -10.5888216 -0.105888E+02  0.284E+00   13.40       0.0  T
   2    -10.6243186 -0.354970E-01  0.153E+00   13.39       1.0  T
   3    -10.6246430 -0.324403E-03  0.795E-01   13.28       1.0  T
   4    -10.6247519 -0.108964E-03  0.105E-01   13.17       1.0  T
   5    -10.6247593 -0.732184E-05  0.588E-02   13.17       1.0  T
   6    -10.6247598 -0.550024E-06  0.210E-03   13.17      14.4  T
   7    -10.6247598 -0.366053E-08  0.939E-04   13.17      32.1  T
   8    -10.6247598 -0.437906E-09  0.219E-04   13.17     137.7  T

   *** convergence criteria satisfied after 8 iterations ***

         #    Occupation            Energy/Eh            Energy/eV
      -------------------------------------------------------------
         1        2.0000           -0.6143020             -16.7160
       ...           ...                  ...                  ...
         4        2.0000           -0.5101100             -13.8808
         5        2.0000           -0.4951869             -13.4747
         6        2.0000           -0.4701594             -12.7937
         7        2.0000           -0.4632165             -12.6048
         8        2.0000           -0.4423873             -12.0380
         9        2.0000           -0.4204771             -11.4418
        10        2.0000           -0.4193700             -11.4116 (HOMO)
        11                          0.0647793               1.7627 (LUMO)
        12                          0.0979082               2.6642
        13                          0.1122146               3.0535
        14                          0.1161938               3.1618
        15                          0.1382289               3.7614
       ...                                ...                  ...
        20                          0.3211606               8.7392
      -------------------------------------------------------------
                  HL-Gap            0.4841492 Eh           13.1744 eV
             Fermi-level           -0.1772953 Eh           -4.8245 eV

 SCC (total)                   0 d,  0 h,  0 min,  0.004 sec
 SCC setup                      ...        0 min,  0.000 sec (  2.506%)
 Dispersion                     ...        0 min,  0.000 sec (  1.326%)
 classical contributions        ...        0 min,  0.000 sec (  0.481%)
 integral evaluation            ...        0 min,  0.000 sec (  6.281%)
 iterations                     ...        0 min,  0.002 sec ( 67.214%)
 molecular gradient             ...        0 min,  0.001 sec ( 17.968%)
 printout                       ...        0 min,  0.000 sec (  3.979%)

         :::::::::::::::::::::::::::::::::::::::::::::::::::::
         ::                     SUMMARY                     ::
         :::::::::::::::::::::::::::::::::::::::::::::::::::::
         :: total energy             -10.482878922884 Eh    ::
         :: gradient norm              0.062477208057 Eh/a0 ::
         :: HOMO-LUMO gap             13.174371523009 eV    ::
         ::.................................................::
         :: SCC energy               -10.624759817057 Eh    ::
         :: -> isotropic ES            0.002365629928 Eh    ::
         :: -> anisotropic ES          0.005024737271 Eh    ::
         :: -> anisotropic XC          0.008802013034 Eh    ::
         :: -> dispersion             -0.003986810723 Eh    ::
         :: repulsion energy           0.141879391496 Eh    ::
         :: add. restraining           0.000000000000 Eh    ::
         :: total charge               0.000000000000 e     ::
         :::::::::::::::::::::::::::::::::::::::::::::::::::::

      ----------------------------------------------------------- 
     |                   =====================                   |
     |                        A N C O P T                        |
     |                   =====================                   |
     |               Approximate Normal Coordinate               |
     |                Rational Function Optimizer                |
      ----------------------------------------------------------- 

          ...................................................
          :                      SETUP                      :
          :.................................................:
          :   optimization level            normal          :
          :   max. optcycles                   200          :
          :   ANC micro-cycles                  20          :
          :   degrees of freedom                27          :
          :.................................................:
          :   RF solver                   davidson          :
          :   write xtbopt.log                true          :
          :   linear?                        false          :
          :   energy convergence         0.5000000E-05 Eh   :
          :   grad. convergence          0.1000000E-02 Eh/α :
          :   maximium RF displ.         1.0000000          :
          :   Hlow (freq-cutoff)         0.1000000E-01      :
          :   Hmax (freq-cutoff)         5.0000000          :
          :   S6 in model hess.         20.0000000          :
          ...................................................

generating ANC from model Hessian ...
Using Lindh-Hessian (1995)
 Shifting diagonal of input Hessian by    8.4761565046501883E-003
 Lowest  eigenvalues of input Hessian
    0.000000    0.000000    0.000000    0.000000    0.000000    0.000000
    0.010000    0.016344    0.018293    0.044148    0.052786    0.054828
    0.056232    0.060872    0.070043    0.070898    0.095859    0.112744
 Highest eigenvalues
    0.981471    1.014130    1.090472    1.157866    1.182026    1.213064


........................................................................
.............................. CYCLE    1 ..............................
........................................................................
   1    -10.6247598 -0.106248E+02  0.840E-05   13.17       0.0  T
   2    -10.6247598 -0.285283E-11  0.472E-05   13.17     638.6  T
   3    -10.6247598 -0.460076E-12  0.844E-06   13.17    3573.7  T
     SCC iter.                  ...        0 min,  0.001 sec
     gradient                   ...        0 min,  0.001 sec
 * total energy  :   -10.4828789 Eh     change       -0.1669598E-10 Eh
   gradient norm :     0.0624767 Eh/α   predicted     0.0000000E+00 (-100.00%)
   displ. norm   :     0.5410491 α      lambda       -0.1722201E-01
   maximum displ.:     0.4621654 α      in ANC's #1, #8, #18, ...

........................................................................
.............................. CYCLE    2 ..............................
........................................................................
   1    -10.6503748 -0.106504E+02  0.595E-01   13.62       0.0  T
   2    -10.6504356 -0.607760E-04  0.354E-01   13.63       1.0  T
   3    -10.6504411 -0.552070E-05  0.217E-02   13.64       1.4  T
   4    -10.6504413 -0.182083E-06  0.107E-02   13.64       2.8  T
   5    -10.6504413 -0.139686E-07  0.239E-03   13.64      12.6  T
   6    -10.6504413 -0.103045E-07  0.693E-04   13.64      43.5  T
   7    -10.6504413 -0.277190E-09  0.139E-04   13.64     216.9  T
     SCC iter.                  ...        0 min,  0.002 sec
     gradient                   ...        0 min,  0.001 sec
 * total energy  :   -10.4922658 Eh     change       -0.9386911E-02 Eh
   gradient norm :     0.0214032 Eh/α   predicted    -0.1113175E-01 (  18.59%)
   displ. norm   :     0.1718367 α      lambda       -0.1770650E-02
   maximum displ.:     0.1193495 α      in ANC's #3, #10, #14, ...

........................................................................
.............................. CYCLE    3 ..............................
........................................................................
   1    -10.6579151 -0.106579E+02  0.197E-01   13.70       0.0  T
   2    -10.6579231 -0.794342E-05  0.114E-01   13.71       1.0  T
   3    -10.6579236 -0.507628E-06  0.922E-03   13.71       3.3  T
   4    -10.6579238 -0.171336E-06  0.293E-03   13.71      10.3  T
   5    -10.6579238 -0.663143E-08  0.168E-03   13.71      17.9  T
   6    -10.6579238 -0.314115E-09  0.827E-05   13.71     364.5  T
   7    -10.6579238 -0.590461E-11  0.385E-05   13.71     783.1  T
     SCC iter.                  ...        0 min,  0.001 sec
     gradient                   ...        0 min,  0.001 sec
 * total energy  :   -10.4931857 Eh     change       -0.9199070E-03 Eh
   gradient norm :     0.0067369 Eh/α   predicted    -0.9114666E-03 (  -0.92%)
   displ. norm   :     0.2382617 α      lambda       -0.8313591E-03
   maximum displ.:     0.1750987 α      in ANC's #3, #1, #4, ...

........................................................................
.............................. CYCLE    4 ..............................
........................................................................
   1    -10.6563732 -0.106564E+02  0.121E-01   13.76       0.0  T
   2    -10.6563747 -0.153948E-05  0.725E-02   13.76       1.0  T
   3    -10.6563749 -0.198870E-06  0.501E-03   13.76       6.0  T
   4    -10.6563750 -0.263607E-07  0.213E-03   13.76      14.1  T
   5    -10.6563750 -0.356274E-08  0.640E-04   13.76      47.1  T
   6    -10.6563750 -0.631644E-09  0.192E-04   13.76     157.2  T
     SCC iter.                  ...        0 min,  0.001 sec
     gradient                   ...        0 min,  0.001 sec
 * total energy  :   -10.4938196 Eh     change       -0.6338736E-03 Eh
   gradient norm :     0.0087050 Eh/α   predicted    -0.4392754E-03 ( -30.70%)
   displ. norm   :     0.5351686 α      lambda       -0.1520304E-02
   maximum displ.:     0.4784192 α      in ANC's #3, #1, #4, ...

........................................................................
.............................. CYCLE    5 ..............................
........................................................................
   1    -10.6507916 -0.106508E+02  0.196E-01   13.75       0.0  T
   2    -10.6508005 -0.886502E-05  0.116E-01   13.75       1.0  T
   3    -10.6508010 -0.522004E-06  0.123E-02   13.75       2.4  T
   4    -10.6508011 -0.354282E-07  0.360E-03   13.75       8.4  T
   5    -10.6508011 -0.203847E-08  0.133E-03   13.75      22.7  T
   6    -10.6508011 -0.231765E-08  0.240E-04   13.75     125.7  T
   7    -10.6508011 -0.295710E-10  0.401E-05   13.75     751.1  T
     SCC iter.                  ...        0 min,  0.001 sec
     gradient                   ...        0 min,  0.001 sec
 * total energy  :   -10.4950508 Eh     change       -0.1231227E-02 Eh
   gradient norm :     0.0218266 Eh/α   predicted    -0.9778623E-03 ( -20.58%)
   displ. norm   :     0.4197991 α      lambda       -0.1505016E-02
   maximum displ.:     0.3829137 α      in ANC's #3, #4, #1, ...

........................................................................
.............................. CYCLE    6 ..............................
........................................................................
   1    -10.6477612 -0.106478E+02  0.149E-01   13.85       0.0  T
   2    -10.6477658 -0.457214E-05  0.879E-02   13.84       1.0  T
   3    -10.6477660 -0.231965E-06  0.812E-03   13.84       3.7  T
   4    -10.6477661 -0.459457E-07  0.243E-03   13.84      12.4  T
   5    -10.6477661 -0.298702E-08  0.123E-03   13.84      24.4  T
   6    -10.6477661 -0.822224E-09  0.149E-04   13.84     202.8  T
   7    -10.6477661 -0.161648E-10  0.138E-05   13.84    2184.1  T
     SCC iter.                  ...        0 min,  0.001 sec
     gradient                   ...        0 min,  0.001 sec
 * total energy  :   -10.4962114 Eh     change       -0.1160559E-02 Eh
   gradient norm :     0.0261974 Eh/α   predicted    -0.8851212E-03 ( -23.73%)
   displ. norm   :     0.3851138 α      lambda       -0.2270820E-02
   maximum displ.:     0.3442593 α      in ANC's #3, #4, #18, ...

........................................................................
.............................. CYCLE    7 ..............................
........................................................................
   1    -10.6529442 -0.106529E+02  0.144E-01   14.15       0.0  T
   2    -10.6529466 -0.235513E-05  0.855E-02   14.15       1.0  T
   3    -10.6529467 -0.966521E-07  0.836E-03   14.15       3.6  T
   4    -10.6529470 -0.284410E-06  0.262E-03   14.15      11.5  T
   5    -10.6529470 -0.366527E-08  0.877E-04   14.15      34.4  T
   6    -10.6529470 -0.259252E-09  0.243E-04   14.15     124.2  T
     SCC iter.                  ...        0 min,  0.002 sec
     gradient                   ...        0 min,  0.001 sec
 * total energy  :   -10.4978422 Eh     change       -0.1630821E-02 Eh
   gradient norm :     0.0195284 Eh/α   predicted    -0.1303806E-02 ( -20.05%)
   displ. norm   :     0.4094044 α      lambda       -0.1995251E-02
   maximum displ.:     0.3767198 α      in ANC's #3, #18, #4, ...

........................................................................
.............................. CYCLE    8 ..............................
........................................................................
   1    -10.6569229 -0.106569E+02  0.149E-01   14.31       0.0  T
   2    -10.6569241 -0.115260E-05  0.888E-02   14.31       1.0  T
   3    -10.6569244 -0.304367E-06  0.542E-03   14.31       5.6  T
   4    -10.6569245 -0.486675E-07  0.271E-03   14.31      11.1  T
   5    -10.6569245 -0.282911E-08  0.470E-04   14.31      64.1  T
   6    -10.6569245 -0.245333E-09  0.193E-04   14.31     156.1  T
     SCC iter.                  ...        0 min,  0.002 sec
     gradient                   ...        0 min,  0.001 sec
 * total energy  :   -10.4992994 Eh     change       -0.1457225E-02 Eh
   gradient norm :     0.0155520 Eh/α   predicted    -0.1164837E-02 ( -20.06%)
   displ. norm   :     0.2493558 α      lambda       -0.1751335E-02
   maximum displ.:     0.1817165 α      in ANC's #3, #18, #16, ...

........................................................................
.............................. CYCLE    9 ..............................
........................................................................
   1    -10.6728944 -0.106729E+02  0.171E-01   14.71       0.0  T
   2    -10.6729190 -0.246507E-04  0.954E-02   14.72       1.0  T
   3    -10.6729202 -0.121502E-05  0.254E-02   14.72       1.2  T
   4    -10.6729203 -0.124014E-06  0.575E-03   14.72       5.2  T
   5    -10.6729203 -0.600327E-08  0.249E-03   14.72      12.1  T
   6    -10.6729204 -0.367291E-08  0.337E-04   14.72      89.5  T
   7    -10.6729204 -0.841727E-10  0.100E-04   14.72     300.3  T
     SCC iter.                  ...        0 min,  0.003 sec
     gradient                   ...        0 min,  0.001 sec
 * total energy  :   -10.4996540 Eh     change       -0.3545440E-03 Eh
   gradient norm :     0.0175939 Eh/α   predicted    -0.9301123E-03 ( 162.34%)
   displ. norm   :     0.5100761 α      lambda       -0.1965685E-02
   maximum displ.:     0.4661856 α      in ANC's #3, #1, #18, ...

........................................................................
.............................. CYCLE   10 ..............................
........................................................................
   1    -10.6581038 -0.106581E+02  0.225E-01   14.46       0.0  T
   2    -10.6581392 -0.354177E-04  0.128E-01   14.45       1.0  T
   3    -10.6581406 -0.139598E-05  0.312E-02   14.45       1.0  T
   4    -10.6581408 -0.211333E-06  0.641E-03   14.45       4.7  T
   5    -10.6581408 -0.116937E-07  0.319E-03   14.45       9.4  T
   6    -10.6581408 -0.512427E-08  0.276E-04   14.45     109.1  T
   7    -10.6581408 -0.309512E-10  0.339E-05   14.45     889.9  T
     SCC iter.                  ...        0 min,  0.002 sec
     gradient                   ...        0 min,  0.001 sec
 * total energy  :   -10.5002856 Eh     change       -0.6315640E-03 Eh
   gradient norm :     0.0195233 Eh/α   predicted    -0.1238553E-02 (  96.11%)
   displ. norm   :     0.1704185 α      lambda       -0.8464961E-03
   maximum displ.:     0.1417701 α      in ANC's #3, #2, #4, ...

........................................................................
.............................. CYCLE   11 ..............................
........................................................................
   1    -10.6643927 -0.106644E+02  0.122E-01   14.55       0.0  T
   2    -10.6644086 -0.158985E-04  0.669E-02   14.56       1.0  T
   3    -10.6644093 -0.637293E-06  0.219E-02   14.56       1.4  T
   4    -10.6644094 -0.130975E-06  0.403E-03   14.56       7.5  T
   5    -10.6644094 -0.253130E-08  0.188E-03   14.56      16.0  T
   6    -10.6644094 -0.833326E-09  0.182E-04   14.56     166.1  T
   7    -10.6644094 -0.782094E-10  0.867E-05   14.56     347.6  T
     SCC iter.                  ...        0 min,  0.001 sec
     gradient                   ...        0 min,  0.001 sec
 * total energy  :   -10.5004411 Eh     change       -0.1555595E-03 Eh
   gradient norm :     0.0127661 Eh/α   predicted    -0.4355411E-03 ( 179.98%)
   displ. norm   :     0.1196726 α      lambda       -0.6923157E-03
   maximum displ.:     0.1141388 α      in ANC's #2, #3, #1, ...

........................................................................
.............................. CYCLE   12 ..............................
........................................................................
   1    -10.6673733 -0.106674E+02  0.114E-01   14.58       0.0  T
   2    -10.6673884 -0.150261E-04  0.614E-02   14.58       1.0  T
   3    -10.6673891 -0.733179E-06  0.220E-02   14.58       1.4  T
   4    -10.6673893 -0.163656E-06  0.431E-03   14.58       7.0  T
   5    -10.6673893 -0.159509E-08  0.120E-03   14.58      25.0  T
   6    -10.6673893 -0.279192E-09  0.130E-04   14.58     231.2  T
   7    -10.6673893 -0.267750E-10  0.654E-05   14.58     460.8  T
     SCC iter.                  ...        0 min,  0.001 sec
     gradient                   ...        0 min,  0.001 sec
 * total energy  :   -10.5005068 Eh     change       -0.6566062E-04 Eh
   gradient norm :     0.0109130 Eh/α   predicted    -0.3511153E-03 ( 434.74%)
   displ. norm   :     0.1789451 α      lambda       -0.4615228E-03
   maximum displ.:     0.1491605 α      in ANC's #3, #18, #2, ...

........................................................................
.............................. CYCLE   13 ..............................
........................................................................
   1    -10.6638459 -0.106638E+02  0.842E-02   14.57       0.0  T
   2    -10.6638501 -0.418257E-05  0.484E-02   14.57       1.0  T
   3    -10.6638503 -0.211286E-06  0.107E-02   14.57       2.8  T
   4    -10.6638503 -0.347187E-07  0.234E-03   14.57      12.9  T
   5    -10.6638503 -0.120457E-08  0.957E-04   14.57      31.5  T
   6    -10.6638503 -0.288285E-09  0.140E-04   14.57     214.7  T
     SCC iter.                  ...        0 min,  0.001 sec
     gradient                   ...        0 min,  0.001 sec
 * total energy  :   -10.5007579 Eh     change       -0.2511001E-03 Eh
   gradient norm :     0.0045134 Eh/α   predicted    -0.2381511E-03 (  -5.16%)
   displ. norm   :     0.0739313 α      lambda       -0.6276704E-04
   maximum displ.:     0.0593513 α      in ANC's #3, #18, #1, ...

........................................................................
.............................. CYCLE   14 ..............................
........................................................................
   1    -10.6641511 -0.106642E+02  0.286E-02   14.56       0.0  T
   2    -10.6641512 -0.164534E-06  0.169E-02   14.56       1.8  T
   3    -10.6641513 -0.123588E-07  0.191E-03   14.56      15.8  T
   4    -10.6641513 -0.345013E-08  0.549E-04   14.56      54.9  T
   5    -10.6641513 -0.105391E-09  0.137E-04   14.56     219.4  T
     SCC iter.                  ...        0 min,  0.001 sec
     gradient                   ...        0 min,  0.001 sec
 * total energy  :   -10.5007956 Eh     change       -0.3767868E-04 Eh
   gradient norm :     0.0027923 Eh/α   predicted    -0.3155573E-04 ( -16.25%)
   displ. norm   :     0.0643086 α      lambda       -0.4343446E-04
   maximum displ.:     0.0411803 α      in ANC's #3, #1, #18, ...

........................................................................
.............................. CYCLE   15 ..............................
........................................................................
   1    -10.6649520 -0.106650E+02  0.293E-02   14.58       0.0  T
   2    -10.6649522 -0.211152E-06  0.172E-02   14.59       1.8  T
   3    -10.6649522 -0.125655E-07  0.246E-03   14.59      12.3  T
   4    -10.6649522 -0.830473E-08  0.668E-04   14.59      45.1  T
   5    -10.6649522 -0.330644E-09  0.297E-04   14.59     101.4  T
     SCC iter.                  ...        0 min,  0.001 sec
     gradient                   ...        0 min,  0.001 sec
 * total energy  :   -10.5008191 Eh     change       -0.2356108E-04 Eh
   gradient norm :     0.0012963 Eh/α   predicted    -0.2180497E-04 (  -7.45%)
   displ. norm   :     0.0399004 α      lambda       -0.7023662E-05
   maximum displ.:     0.0275008 α      in ANC's #3, #1, #18, ...

........................................................................
.............................. CYCLE   16 ..............................
........................................................................
   1    -10.6650777 -0.106651E+02  0.165E-02   14.57       0.0  T
   2    -10.6650778 -0.962066E-07  0.959E-03   14.57       3.1  T
   3    -10.6650778 -0.521980E-08  0.170E-03   14.57      17.7  T
   4    -10.6650778 -0.211407E-08  0.384E-04   14.57      78.5  T
   5    -10.6650778 -0.210090E-10  0.793E-05   14.57     380.4  T
     SCC iter.                  ...        0 min,  0.001 sec
     gradient                   ...        0 min,  0.001 sec
 * total energy  :   -10.5008206 Eh     change       -0.1483871E-05 Eh
   gradient norm :     0.0014588 Eh/α   predicted    -0.3513790E-05 ( 136.80%)
   displ. norm   :     0.0144051 α      lambda       -0.3577308E-05
   maximum displ.:     0.0121886 α      in ANC's #3, #18, #4, ...

........................................................................
.............................. CYCLE   17 ..............................
........................................................................
   1    -10.6651299 -0.106651E+02  0.830E-03   14.59       0.0  T
   2    -10.6651300 -0.203189E-07  0.481E-03   14.59       6.3  T
   3    -10.6651300 -0.104361E-08  0.825E-04   14.59      36.6  T
   4    -10.6651300 -0.102800E-08  0.207E-04   14.59     145.4  T
     SCC iter.                  ...        0 min,  0.001 sec
     gradient                   ...        0 min,  0.001 sec
 * total energy  :   -10.5008231 Eh     change       -0.2498123E-05 Eh
   gradient norm :     0.0007540 Eh/α   predicted    -0.1788379E-05 ( -28.41%)
   displ. norm   :     0.0100861 α      lambda       -0.1429811E-05
   maximum displ.:     0.0074946 α      in ANC's #3, #18, #16, ...

   *** GEOMETRY OPTIMIZATION CONVERGED AFTER 17 ITERATIONS ***

------------------------------------------------------------------------
 total energy gain   :        -0.0179442 Eh      -11.2601 kcal/mol
 total RMSD          :         0.9347711 a0        0.4947 Å
 total power (kW/mol):        -2.7713190 (step)-1024.6286 (real)
------------------------------------------------------------------------

 ANCopt (total)                0 d,  0 h,  0 min,  0.046 sec
 optimizer setup                ...        0 min,  0.000 sec (  0.131%)
 model hessian                  ...        0 min,  0.003 sec (  7.106%)
 ANC generation                 ...        0 min,  0.000 sec (  0.809%)
 coordinate transformation      ...        0 min,  0.000 sec (  0.136%)
 single point calculation       ...        0 min,  0.039 sec ( 84.533%)
 optimization log               ...        0 min,  0.001 sec (  2.371%)
 hessian update                 ...        0 min,  0.000 sec (  0.205%)
 rational function              ...        0 min,  0.002 sec (  3.273%)

================
 final structure:
================
11
 xtb: 6.4.1 (23d549d)
C         1.27376097999529   -0.09590641032550    0.10549302483292
C        -0.04763389268497    0.53541926314563   -0.31596832174549
C        -1.23831743010468   -0.30409702575114    0.13021190842253
H         2.11222280235172    0.52217767608545   -0.20554802238324
H         1.38698484548654   -1.07983239865575   -0.34516326330995
H         1.31282455247785   -0.20908892499536    1.18625747356870
H        -0.12654250435850    1.53484296069905    0.11826906778557
H        -0.06702075074850    0.64394009387688   -1.40278122823888
H        -1.25433676130482   -0.39467208576029    1.21451187879849
H        -2.17285822773769    0.15111891749276   -0.19076414740964
H        -1.17909361337221   -1.30390206581183   -0.29450837032103

 Bond Distances (Angstroems)
 ---------------------------
C1-C2=1.5239         C1-H4=1.0871         C1-H5=1.0881         C1-H6=1.0874         C2-C1=1.5239         C2-C3=1.5237         
C2-H7=1.0925         C2-H8=1.0924         C3-C2=1.5237         C3-H9=1.0882         C3-H10=1.0879        C3-H11=1.0879        
H4-C1=1.0871         H5-C1=1.0881         H6-C1=1.0874         H7-C2=1.0925         H8-C2=1.0924         H9-C3=1.0882         
H10-C3=1.0879        H11-C3=1.0879        
 C  H  Rav=1.0889 sigma=0.0021  Rmin=1.0871  Rmax=1.0925     8
 C  C  Rav=1.5238 sigma=0.0001  Rmin=1.5237  Rmax=1.5239     2

 selected bond angles (degree)
 --------------------
H4-C1-C2=110.74                H5-C1-C2=110.51                H5-C1-H4=108.38                H6-C1-C2=110.44                
H6-C1-H4=108.41                H6-C1-H5=108.29                C3-C2-C1=111.61                H7-C2-C1=109.37                
H7-C2-C3=109.34                H8-C2-C1=109.37                H8-C2-C3=109.40                H8-C2-H7=107.65                
H9-C3-C2=110.44                H10-C3-C2=110.75               H10-C3-H9=108.43               H11-C3-C2=110.46               
H11-C3-H9=108.26               H11-C3-H10=108.43              

 selected dihedral angles (degree)
 ---------------------------------
C3-C2-C1-H4=180.92            C3-C2-C1-H5= 60.81            C3-C2-C1-H6=301.02            H7-C2-C1-H4=302.05            
H7-C2-C1-H5=181.94            H7-C2-C1-H6= 62.15            H8-C2-C1-H4= 59.72            H8-C2-C1-H5=299.61            
H8-C2-C1-H6=179.82            H9-C3-C2-C1= 60.73            H9-C3-C2-H7=299.59            H9-C3-C2-H8=181.92            
H10-C3-C2-C1=180.86           H10-C3-C2-H7= 59.72           H10-C3-C2-H8=302.05           H11-C3-C2-C1=301.01           
H11-C3-C2-H7=179.86           H11-C3-C2-H8= 62.19           
           -------------------------------------------------
          |                Final Singlepoint                |
           -------------------------------------------------

          ...................................................
          :                      SETUP                      :
          :.................................................:
          :  # basis functions                  20          :
          :  # atomic orbitals                  20          :
          :  # shells                           14          :
          :  # electrons                        20          :
          :  max. iterations                   250          :
          :  Hamiltonian                  GFN2-xTB          :
          :  restarted?                      false          :
          :  GBSA solvation                  false          :
          :  PC potential                    false          :
          :  electronic temp.          300.0000000     K    :
          :  accuracy                    1.0000000          :
          :  -> integral cutoff          0.2500000E+02      :
          :  -> integral neglect         0.1000000E-07      :
          :  -> SCF convergence          0.1000000E-05 Eh   :
          :  -> wf. convergence          0.1000000E-03 e    :
          :  Broyden damping             0.4000000          :
          ...................................................

 iter      E             dE          RMSdq      gap      omega  full diag
   1    -10.6651300 -0.106651E+02  0.672E-05   14.59       0.0  T
   2    -10.6651300 -0.459899E-11  0.368E-05   14.59     819.2  T
   3    -10.6651300 -0.117240E-12  0.137E-05   14.59    2208.3  T

   *** convergence criteria satisfied after 3 iterations ***

         #    Occupation            Energy/Eh            Energy/eV
      -------------------------------------------------------------
         1        2.0000           -0.6139782             -16.7072
       ...           ...                  ...                  ...
         4        2.0000           -0.5076431             -13.8137
         5        2.0000           -0.4966474             -13.5145
         6        2.0000           -0.4754951             -12.9389
         7        2.0000           -0.4592174             -12.4959
         8        2.0000           -0.4372267             -11.8975
         9        2.0000           -0.4351549             -11.8412
        10        2.0000           -0.4239328             -11.5358 (HOMO)
        11                          0.1120824               3.0499 (LUMO)
        12                          0.1367774               3.7219
        13                          0.1421159               3.8672
        14                          0.1613915               4.3917
        15                          0.1724491               4.6926
       ...                                ...                  ...
        20                          0.3020805               8.2200
      -------------------------------------------------------------
                  HL-Gap            0.5360151 Eh           14.5857 eV
             Fermi-level           -0.1559252 Eh           -4.2429 eV

 SCC (total)                   0 d,  0 h,  0 min,  0.002 sec
 SCC setup                      ...        0 min,  0.000 sec (  3.696%)
 Dispersion                     ...        0 min,  0.000 sec (  1.451%)
 classical contributions        ...        0 min,  0.000 sec (  0.446%)
 integral evaluation            ...        0 min,  0.000 sec ( 12.939%)
 iterations                     ...        0 min,  0.001 sec ( 41.725%)
 molecular gradient             ...        0 min,  0.001 sec ( 34.353%)
 printout                       ...        0 min,  0.000 sec (  4.983%)

         :::::::::::::::::::::::::::::::::::::::::::::::::::::
         ::                     SUMMARY                     ::
         :::::::::::::::::::::::::::::::::::::::::::::::::::::
         :: total energy             -10.500823097391 Eh    ::
         :: gradient norm              0.000763208356 Eh/a0 ::
         :: HOMO-LUMO gap             14.585714566231 eV    ::
         ::.................................................::
         :: SCC energy               -10.665129952833 Eh    ::
         :: -> isotropic ES            0.002530004216 Eh    ::
         :: -> anisotropic ES          0.003980250914 Eh    ::
         :: -> anisotropic XC          0.007218694664 Eh    ::
         :: -> dispersion             -0.003957963814 Eh    ::
         :: repulsion energy           0.164305479738 Eh    ::
         :: add. restraining           0.000000000000 Eh    ::
         :: total charge               0.000000000000 e     ::
         :::::::::::::::::::::::::::::::::::::::::::::::::::::

           -------------------------------------------------
          |                Property Printout                |
           -------------------------------------------------

    * Orbital Energies and Occupations

         #    Occupation            Energy/Eh            Energy/eV
      -------------------------------------------------------------
         1        2.0000           -0.6139782             -16.7072
         2        2.0000           -0.5841231             -15.8948
         3        2.0000           -0.5539320             -15.0733
         4        2.0000           -0.5076431             -13.8137
         5        2.0000           -0.4966474             -13.5145
         6        2.0000           -0.4754951             -12.9389
         7        2.0000           -0.4592174             -12.4959
         8        2.0000           -0.4372267             -11.8975
         9        2.0000           -0.4351549             -11.8412
        10        2.0000           -0.4239328             -11.5358 (HOMO)
        11                          0.1120824               3.0499 (LUMO)
        12                          0.1367774               3.7219
        13                          0.1421159               3.8672
        14                          0.1613915               4.3917
        15                          0.1724491               4.6926
        16                          0.2035719               5.5395
        17                          0.2317388               6.3059
        18                          0.2600811               7.0772
        19                          0.2691287               7.3234
        20                          0.3020805               8.2200
      -------------------------------------------------------------
                  HL-Gap            0.5360151 Eh           14.5857 eV
             Fermi-level           -0.1559252 Eh           -4.2429 eV

     #   Z          covCN         q      C6AA      α(0)
     1   6 C        3.752    -0.102    22.512     6.766
     2   6 C        3.799    -0.047    21.425     6.590
     3   6 C        3.752    -0.102    22.510     6.766
     4   1 H        0.925     0.031     2.574     2.509
     5   1 H        0.925     0.033     2.538     2.491
     6   1 H        0.925     0.034     2.533     2.489
     7   1 H        0.924     0.028     2.619     2.531
     8   1 H        0.924     0.028     2.619     2.531
     9   1 H        0.925     0.033     2.538     2.491
    10   1 H        0.925     0.031     2.576     2.510
    11   1 H        0.925     0.034     2.534     2.489

 Mol. C6AA /au·bohr⁶  :        723.096695
 Mol. C8AA /au·bohr⁸  :      14472.727923
 Mol. α(0) /au        :         40.162457


Wiberg/Mayer (AO) data.
largest (>0.10) Wiberg bond orders for each atom

 ---------------------------------------------------------------------------
     #   Z sym  total        # sym  WBO       # sym  WBO       # sym  WBO
 ---------------------------------------------------------------------------
     1   6 C    3.997 --     2 C    1.020     5 H    0.988     6 H    0.988
                             4 H    0.988
     2   6 C    3.998 --     3 C    1.020     1 C    1.020     8 H    0.980
                             7 H    0.980
     3   6 C    3.997 --     2 C    1.020     9 H    0.988    11 H    0.988
                            10 H    0.988
     4   1 H    0.999 --     1 C    0.988
     5   1 H    0.999 --     1 C    0.988
     6   1 H    0.999 --     1 C    0.988
     7   1 H    0.999 --     2 C    0.980
     8   1 H    0.999 --     2 C    0.980
     9   1 H    0.999 --     3 C    0.988
    10   1 H    0.999 --     3 C    0.988
    11   1 H    0.999 --     3 C    0.988
 ---------------------------------------------------------------------------

Topologies differ in total number of bonds
Writing topology from bond orders to xtbtopo.mol

molecular dipole:
                 x           y           z       tot (Debye)
 q only:        0.001      -0.007       0.004
   full:        0.001      -0.007       0.005       0.023
molecular quadrupole (traceless):
                xx          xy          yy          xz          yz          zz
 q only:        0.085       0.009      -0.012       0.005      -0.054      -0.073
  q+dip:       -0.669      -0.070       0.180      -0.009       0.274       0.489
   full:       -0.299      -0.031       0.080      -0.003       0.124       0.220

           -------------------------------------------------
          |                Geometry Summary                 |
           -------------------------------------------------

      molecular mass/u    :       44.0957337
   center of mass at/Å    :       -0.0030420       0.0337890      -0.0200271
  moments of inertia/u·Å² :        0.1720603E+02   0.5886932E+02   0.6667194E+02
rotational constants/cm⁻¹ :        0.9797514E+00   0.2863568E+00   0.2528445E+00

 * 10 selected distances

     #   Z          #   Z                                           value/Å
     1   6 C        2   6 C                                       1.5239049 (max)
     2   6 C        3   6 C                                       1.5236770
     1   6 C        4   1 H                                       1.0871029 (min)
     1   6 C        5   1 H                                       1.0881273
     1   6 C        6   1 H                                       1.0873767
     2   6 C        7   1 H                                       1.0925367
     2   6 C        8   1 H                                       1.0923895
     3   6 C        9   1 H                                       1.0881943
     3   6 C       10   1 H                                       1.0879401
     3   6 C       11   1 H                                       1.0878901

 * 2 distinct bonds (by element types)

   Z      Z             #   av. dist./Å        max./Å        min./Å
   1 H    6 C           8     1.0889447     1.0925367     1.0871029
   6 C    6 C           2     1.5237910     1.5239049     1.5236770


optimized geometry written to: xtbopt.xyz


           -------------------------------------------------
          | TOTAL ENERGY              -10.500823097391 Eh   |
          | GRADIENT NORM               0.000763208356 Eh/α |
          | HOMO-LUMO GAP              14.585714566231 eV   |
           -------------------------------------------------

------------------------------------------------------------------------
 * finished run on 2022/02/09 at 17:30:04.633     
------------------------------------------------------------------------
 total:
 * wall-time:     0 d,  0 h,  0 min,  0.060 sec
 *  cpu-time:     0 d,  0 h,  0 min,  0.385 sec
 * ratio c/w:     6.413 speedup
 SCF:
 * wall-time:     0 d,  0 h,  0 min,  0.004 sec
 *  cpu-time:     0 d,  0 h,  0 min,  0.015 sec
 * ratio c/w:     3.997 speedup
 ANC optimizer:
 * wall-time:     0 d,  0 h,  0 min,  0.048 sec
 *  cpu-time:     0 d,  0 h,  0 min,  0.330 sec
 * ratio c/w:     6.855 speedup

