      -----------------------------------------------------------      
     |                   =====================                   |     
     |                           x T B                           |     
     |                   =====================                   |     
     |                         S. Grimme                         |     
     |          Mulliken Center for Theoretical Chemistry        |     
     |                    University of Bonn                     |     
      -----------------------------------------------------------      

   * xtb version 6.4.1 (23d549d) compiled by 'conda@3c73975816cd' on 2022-01-07

   xtb is free software: you can redistribute it and/or modify it under
   the terms of the GNU Lesser General Public License as published by
   the Free Software Foundation, either version 3 of the License, or
   (at your option) any later version.
   
   xtb is distributed in the hope that it will be useful,
   but WITHOUT ANY WARRANTY; without even the implied warranty of
   MERCHANTABILITY or FITNESS FOR A PARTICULAR PURPOSE.  See the
   GNU Lesser General Public License for more details.
   
   Cite this work as:
   * C. Bannwarth, E. Caldeweyher, S. Ehlert, A. Hansen, P. Pracht,
     J. Seibert, S. Spicher, S. Grimme, WIREs Comput. Mol. Sci., 2020, 11,
     e01493. DOI: 10.1002/wcms.1493
   
   for GFN2-xTB:
   * C. Bannwarth, S. Ehlert and S. Grimme., J. Chem. Theory Comput., 2019,
     15, 1652-1671. DOI: 10.1021/acs.jctc.8b01176
   for GFN1-xTB:
   * S. Grimme, C. Bannwarth, P. Shushkov, J. Chem. Theory Comput., 2017,
     13, 1989-2009. DOI: 10.1021/acs.jctc.7b00118
   for GFN0-xTB:
   * P. Pracht, E. Caldeweyher, S. Ehlert, S. Grimme, ChemRxiv, 2019, preprint.
     DOI: 10.26434/chemrxiv.8326202.v1
   for GFN-FF:
   * S. Spicher and S. Grimme, Angew. Chem. Int. Ed., 2020, 59, 15665-15673.
     DOI: 10.1002/anie.202004239
   
   for DFT-D4:
   * E. Caldeweyher, C. Bannwarth and S. Grimme, J. Chem. Phys., 2017,
     147, 034112. DOI: 10.1063/1.4993215
   * E. Caldeweyher, S. Ehlert, A. Hansen, H. Neugebauer, S. Spicher,
     C. Bannwarth and S. Grimme, J. Chem. Phys., 2019, 150, 154122.
     DOI: 10.1063/1.5090222
   * E. Caldeweyher, J.-M. Mewes, S. Ehlert and S. Grimme, Phys. Chem. Chem. Phys.
     2020, 22, 8499-8512. DOI: 10.1039/D0CP00502A
   
   for sTDA-xTB:
   * S. Grimme and C. Bannwarth, J. Chem. Phys., 2016, 145, 054103.
     DOI: 10.1063/1.4959605
   
   in the mass-spec context:
   * V. Asgeirsson, C. Bauer and S. Grimme, Chem. Sci., 2017, 8, 4879.
     DOI: 10.1039/c7sc00601b
   * J. Koopman and S. Grimme, ACS Omega 2019, 4, 12, 15120-15133.
     DOI: 10.1021/acsomega.9b02011
   
   for metadynamics refer to:
   * S. Grimme, J. Chem. Theory Comput., 2019, 155, 2847-2862
     DOI: 10.1021/acs.jctc.9b00143
   
   for SPH calculations refer to:
   * S. Spicher and S. Grimme, J. Chem. Theory Comput., 2021, 17, 1701-1714
     DOI: 10.1021/acs.jctc.0c01306
   
   with help from (in alphabetical order)
   P. Atkinson, C. Bannwarth, F. Bohle, G. Brandenburg, E. Caldeweyher
   M. Checinski, S. Dohm, S. Ehlert, S. Ehrlich, I. Gerasimov, J. Koopman
   C. Lavigne, S. Lehtola, F. März, M. Müller, F. Musil, H. Neugebauer
   J. Pisarek, C. Plett, P. Pracht, J. Seibert, P. Shushkov, S. Spicher
   M. Stahn, M. Steiner, T. Strunk, J. Stückrath, T. Rose, and J. Unsleber
   
 * started run on 2022/02/09 at 17:30:04.686     

           -------------------------------------------------
          |                Calculation Setup                |
           -------------------------------------------------

          program call               : /home/maihfly/anaconda3/envs/Cyclodextrins-env-4.0/bin/xtb Vanillin_opt_xtb.xyz --chrg 0 --uhf 0 --opt
          coordinate file            : Vanillin_opt_xtb.xyz
          omp threads                :                     4
          number of atoms            :                    19
          number of electrons        :                    58
          charge                     :                     0
          spin                       :                   0.0
          first test random number   :      0.66432821270233

   ID    Z sym.   atoms
    1    8 O      1, 7, 9
    2    6 C      2-6, 8, 10, 11
    3    1 H      12-19

           -------------------------------------------------
          |                 G F N 2 - x T B                 |
           -------------------------------------------------

        Reference                      10.1021/acs.jctc.8b01176
      * Hamiltonian:
        H0-scaling (s, p, d)           1.850000    2.230000    2.230000
        zeta-weighting                 0.500000
      * Dispersion:
        s8                             2.700000
        a1                             0.520000
        a2                             5.000000
        s9                             5.000000
      * Repulsion:
        kExp                           1.500000    1.000000
        rExp                           1.000000
      * Coulomb:
        alpha                          2.000000
        third order                    shell-resolved
        anisotropic                    true
        a3                             3.000000
        a5                             4.000000
        cn-shift                       1.200000
        cn-exp                         4.000000
        max-rad                        5.000000


          ...................................................
          :                      SETUP                      :
          :.................................................:
          :  # basis functions                  52          :
          :  # atomic orbitals                  52          :
          :  # shells                           30          :
          :  # electrons                        58          :
          :  max. iterations                   250          :
          :  Hamiltonian                  GFN2-xTB          :
          :  restarted?                      false          :
          :  GBSA solvation                  false          :
          :  PC potential                    false          :
          :  electronic temp.          300.0000000     K    :
          :  accuracy                    1.0000000          :
          :  -> integral cutoff          0.2500000E+02      :
          :  -> integral neglect         0.1000000E-07      :
          :  -> SCF convergence          0.1000000E-05 Eh   :
          :  -> wf. convergence          0.1000000E-03 e    :
          :  Broyden damping             0.4000000          :
          ...................................................

 iter      E             dE          RMSdq      gap      omega  full diag
   1    -33.7200304 -0.337200E+02  0.520E+00    2.79       0.0  T
   2    -33.7631308 -0.431004E-01  0.279E+00    2.65       1.0  T
   3    -33.7596163  0.351448E-02  0.157E+00    2.74       1.0  T
   4    -33.7719163 -0.122999E-01  0.230E-01    2.66       1.0  T
   5    -33.7722858 -0.369556E-03  0.999E-02    2.69       1.0  T
   6    -33.7723245 -0.386822E-04  0.524E-02    2.70       1.0  T
   7    -33.7723404 -0.159406E-04  0.151E-02    2.70       1.5  T
   8    -33.7723409 -0.445175E-06  0.610E-03    2.70       3.8  T
   9    -33.7723411 -0.225302E-06  0.265E-03    2.70       8.7  T
  10    -33.7723411 -0.286469E-07  0.105E-03    2.70      21.8  T
  11    -33.7723411 -0.721036E-08  0.592E-04    2.70      38.8  T
  12    -33.7723412 -0.209766E-08  0.185E-04    2.70     124.1  T

   *** convergence criteria satisfied after 12 iterations ***

         #    Occupation            Energy/Eh            Energy/eV
      -------------------------------------------------------------
         1        2.0000           -0.7350857             -20.0027
       ...           ...                  ...                  ...
        23        2.0000           -0.4808575             -13.0848
        24        2.0000           -0.4642345             -12.6325
        25        2.0000           -0.4619071             -12.5691
        26        2.0000           -0.4432797             -12.0623
        27        2.0000           -0.4166908             -11.3387
        28        2.0000           -0.4004986             -10.8981
        29        2.0000           -0.3941063             -10.7242 (HOMO)
        30                         -0.2950305              -8.0282 (LUMO)
        31                         -0.2359360              -6.4201
        32                         -0.1998034              -5.4369
        33                         -0.0914660              -2.4889
        34                         -0.0336905              -0.9168
       ...                                ...                  ...
        52                          0.6539301              17.7943
      -------------------------------------------------------------
                  HL-Gap            0.0990759 Eh            2.6960 eV
             Fermi-level           -0.3445684 Eh           -9.3762 eV

 SCC (total)                   0 d,  0 h,  0 min,  0.015 sec
 SCC setup                      ...        0 min,  0.000 sec (  0.690%)
 Dispersion                     ...        0 min,  0.000 sec (  0.757%)
 classical contributions        ...        0 min,  0.000 sec (  0.158%)
 integral evaluation            ...        0 min,  0.001 sec (  7.467%)
 iterations                     ...        0 min,  0.011 sec ( 75.101%)
 molecular gradient             ...        0 min,  0.002 sec ( 14.894%)
 printout                       ...        0 min,  0.000 sec (  0.849%)

         :::::::::::::::::::::::::::::::::::::::::::::::::::::
         ::                     SUMMARY                     ::
         :::::::::::::::::::::::::::::::::::::::::::::::::::::
         :: total energy             -33.363258481620 Eh    ::
         :: gradient norm              0.130300436647 Eh/a0 ::
         :: HOMO-LUMO gap              2.695991199435 eV    ::
         ::.................................................::
         :: SCC energy               -33.772341150377 Eh    ::
         :: -> isotropic ES            0.059080348918 Eh    ::
         :: -> anisotropic ES          0.002192951009 Eh    ::
         :: -> anisotropic XC          0.006179398452 Eh    ::
         :: -> dispersion             -0.015478001135 Eh    ::
         :: repulsion energy           0.409046952640 Eh    ::
         :: add. restraining           0.000000000000 Eh    ::
         :: total charge               0.000000000000 e     ::
         :::::::::::::::::::::::::::::::::::::::::::::::::::::

      ----------------------------------------------------------- 
     |                   =====================                   |
     |                        A N C O P T                        |
     |                   =====================                   |
     |               Approximate Normal Coordinate               |
     |                Rational Function Optimizer                |
      ----------------------------------------------------------- 

          ...................................................
          :                      SETUP                      :
          :.................................................:
          :   optimization level            normal          :
          :   max. optcycles                   200          :
          :   ANC micro-cycles                  20          :
          :   degrees of freedom                51          :
          :.................................................:
          :   RF solver                   davidson          :
          :   write xtbopt.log                true          :
          :   linear?                        false          :
          :   energy convergence         0.5000000E-05 Eh   :
          :   grad. convergence          0.1000000E-02 Eh/α :
          :   maximium RF displ.         1.0000000          :
          :   Hlow (freq-cutoff)         0.1000000E-01      :
          :   Hmax (freq-cutoff)         5.0000000          :
          :   S6 in model hess.         20.0000000          :
          ...................................................

generating ANC from model Hessian ...
Using Lindh-Hessian (1995)
 Shifting diagonal of input Hessian by    7.5677835351347740E-003
 Lowest  eigenvalues of input Hessian
    0.000000    0.000000    0.000000    0.000000    0.000000    0.000000
    0.010000    0.011663    0.012022    0.012939    0.019439    0.022334
    0.025354    0.026636    0.032735    0.035157    0.048823    0.056181
 Highest eigenvalues
    1.681240    1.825888    1.948268    2.025038    2.106889    2.200923


........................................................................
.............................. CYCLE    1 ..............................
........................................................................
   1    -33.7723412 -0.337723E+02  0.101E-04    2.70       0.0  T
   2    -33.7723412 -0.322800E-10  0.595E-05    2.70     385.8  T
   3    -33.7723412 -0.201510E-10  0.404E-05    2.70     567.9  T
     SCC iter.                  ...        0 min,  0.002 sec
     gradient                   ...        0 min,  0.002 sec
 * total energy  :   -33.3632585 Eh     change       -0.1609877E-09 Eh
   gradient norm :     0.1302990 Eh/α   predicted     0.0000000E+00 (-100.00%)
   displ. norm   :     0.2741014 α      lambda       -0.1832895E-01
   maximum displ.:     0.1170126 α      in ANC's #17, #15, #8, ...

........................................................................
.............................. CYCLE    2 ..............................
........................................................................
   1    -33.7912433 -0.337912E+02  0.289E-01    2.82       0.0  T
   2    -33.7915721 -0.328722E-03  0.187E-01    2.80       1.0  T
   3    -33.7915776 -0.550686E-05  0.942E-02    2.80       1.0  T
   4    -33.7916139 -0.363024E-04  0.359E-02    2.81       1.0  T
   5    -33.7916341 -0.202581E-04  0.707E-03    2.80       3.2  T
   6    -33.7916343 -0.152734E-06  0.417E-03    2.80       5.5  T
   7    -33.7916344 -0.974676E-07  0.144E-03    2.80      15.9  T
   8    -33.7916344 -0.240514E-08  0.675E-04    2.80      34.0  T
   9    -33.7916344 -0.189531E-08  0.275E-04    2.80      83.6  T
     SCC iter.                  ...        0 min,  0.011 sec
     gradient                   ...        0 min,  0.003 sec
 * total energy  :   -33.3760370 Eh     change       -0.1277853E-01 Eh
   gradient norm :     0.0508373 Eh/α   predicted    -0.9858336E-02 ( -22.85%)
   displ. norm   :     0.2816960 α      lambda       -0.5794927E-02
   maximum displ.:     0.1381892 α      in ANC's #8, #15, #2, ...

........................................................................
.............................. CYCLE    3 ..............................
........................................................................
   1    -33.8018902 -0.338019E+02  0.219E-01    2.87       0.0  T
   2    -33.8020324 -0.142236E-03  0.137E-01    2.87       1.0  T
   3    -33.8020306  0.183848E-05  0.712E-02    2.86       1.0  T
   4    -33.8020655 -0.349549E-04  0.232E-02    2.87       1.0  T
   5    -33.8020720 -0.649875E-05  0.548E-03    2.87       4.2  T
   6    -33.8020721 -0.115887E-06  0.306E-03    2.87       7.5  T
   7    -33.8020722 -0.586273E-07  0.120E-03    2.87      19.1  T
   8    -33.8020722 -0.235705E-08  0.527E-04    2.87      43.5  T
   9    -33.8020722 -0.124024E-08  0.223E-04    2.87     102.9  T
     SCC iter.                  ...        0 min,  0.009 sec
     gradient                   ...        0 min,  0.003 sec
 * total energy  :   -33.3794041 Eh     change       -0.3367079E-02 Eh
   gradient norm :     0.0105784 Eh/α   predicted    -0.3128326E-02 (  -7.09%)
   displ. norm   :     0.2339168 α      lambda       -0.9819011E-03
   maximum displ.:     0.1388880 α      in ANC's #2, #8, #1, ...

........................................................................
.............................. CYCLE    4 ..............................
........................................................................
   1    -33.8006946 -0.338007E+02  0.849E-02    2.87       0.0  T
   2    -33.8006966 -0.205150E-05  0.509E-02    2.87       1.0  T
   3    -33.8006944  0.223500E-05  0.151E-02    2.87       1.5  T
   4    -33.8006976 -0.319517E-05  0.341E-03    2.88       6.7  T
   5    -33.8006976 -0.276273E-07  0.184E-03    2.88      12.5  T
   6    -33.8006976 -0.842289E-08  0.865E-04    2.88      26.5  T
   7    -33.8006976 -0.558428E-08  0.351E-04    2.88      65.4  T
     SCC iter.                  ...        0 min,  0.007 sec
     gradient                   ...        0 min,  0.003 sec
 * total energy  :   -33.3801085 Eh     change       -0.7043605E-03 Eh
   gradient norm :     0.0092938 Eh/α   predicted    -0.5178216E-03 ( -26.48%)
   displ. norm   :     0.2482168 α      lambda       -0.5686753E-03
   maximum displ.:     0.1698072 α      in ANC's #2, #8, #1, ...

........................................................................
.............................. CYCLE    5 ..............................
........................................................................
   1    -33.7998628 -0.337999E+02  0.724E-02    2.89       0.0  T
   2    -33.7998656 -0.284145E-05  0.433E-02    2.89       1.0  T
   3    -33.7998617  0.390429E-05  0.178E-02    2.89       1.3  T
   4    -33.7998668 -0.503228E-05  0.314E-03    2.89       7.3  T
   5    -33.7998668 -0.855608E-07  0.151E-03    2.89      15.1  T
   6    -33.7998669 -0.876866E-08  0.872E-04    2.89      26.3  T
   7    -33.7998669 -0.382107E-08  0.243E-04    2.89      94.5  T
     SCC iter.                  ...        0 min,  0.006 sec
     gradient                   ...        0 min,  0.003 sec
 * total energy  :   -33.3804402 Eh     change       -0.3317570E-03 Eh
   gradient norm :     0.0094506 Eh/α   predicted    -0.3018644E-03 (  -9.01%)
   displ. norm   :     0.1017639 α      lambda       -0.2066667E-03
   maximum displ.:     0.0722371 α      in ANC's #2, #1, #8, ...

........................................................................
.............................. CYCLE    6 ..............................
........................................................................
   1    -33.8013328 -0.338013E+02  0.420E-02    2.89       0.0  T
   2    -33.8013338 -0.106620E-05  0.252E-02    2.89       1.0  T
   3    -33.8013326  0.120254E-05  0.111E-02    2.89       2.1  T
   4    -33.8013342 -0.157266E-05  0.159E-03    2.89      14.4  T
   5    -33.8013342 -0.251205E-07  0.648E-04    2.89      35.4  T
   6    -33.8013342 -0.376911E-08  0.308E-04    2.89      74.6  T
     SCC iter.                  ...        0 min,  0.005 sec
     gradient                   ...        0 min,  0.003 sec
 * total energy  :   -33.3805773 Eh     change       -0.1370902E-03 Eh
   gradient norm :     0.0062645 Eh/α   predicted    -0.1044041E-03 ( -23.84%)
   displ. norm   :     0.1732022 α      lambda       -0.2772572E-03
   maximum displ.:     0.1326646 α      in ANC's #2, #1, #4, ...

........................................................................
.............................. CYCLE    7 ..............................
........................................................................
   1    -33.8035167 -0.338035E+02  0.600E-02    2.90       0.0  T
   2    -33.8035182 -0.148579E-05  0.361E-02    2.89       1.0  T
   3    -33.8035163  0.189570E-05  0.138E-02    2.90       1.7  T
   4    -33.8035187 -0.241388E-05  0.191E-03    2.89      12.0  T
   5    -33.8035187 -0.211137E-07  0.911E-04    2.89      25.2  T
   6    -33.8035187 -0.528639E-08  0.464E-04    2.89      49.4  T
     SCC iter.                  ...        0 min,  0.008 sec
     gradient                   ...        0 min,  0.003 sec
 * total energy  :   -33.3807417 Eh     change       -0.1643569E-03 Eh
   gradient norm :     0.0063544 Eh/α   predicted    -0.1427880E-03 ( -13.12%)
   displ. norm   :     0.1546711 α      lambda       -0.1513112E-03
   maximum displ.:     0.1239802 α      in ANC's #2, #1, #4, ...

........................................................................
.............................. CYCLE    8 ..............................
........................................................................
   1    -33.8029687 -0.338030E+02  0.425E-02    2.89       0.0  T
   2    -33.8029693 -0.617987E-06  0.253E-02    2.89       1.0  T
   3    -33.8029689  0.425778E-06  0.570E-03    2.89       4.0  T
   4    -33.8029694 -0.507120E-06  0.157E-03    2.89      14.6  T
   5    -33.8029694 -0.376630E-07  0.603E-04    2.89      38.1  T
   6    -33.8029694 -0.296609E-09  0.290E-04    2.89      79.0  T
     SCC iter.                  ...        0 min,  0.005 sec
     gradient                   ...        0 min,  0.003 sec
 * total energy  :   -33.3808429 Eh     change       -0.1012894E-03 Eh
   gradient norm :     0.0077351 Eh/α   predicted    -0.7746887E-04 ( -23.52%)
   displ. norm   :     0.1385768 α      lambda       -0.1885287E-03
   maximum displ.:     0.0900036 α      in ANC's #2, #4, #3, ...

........................................................................
.............................. CYCLE    9 ..............................
........................................................................
   1    -33.8039937 -0.338040E+02  0.535E-02    2.89       0.0  T
   2    -33.8039962 -0.244615E-05  0.317E-02    2.89       1.0  T
   3    -33.8039946  0.158801E-05  0.139E-02    2.89       1.7  T
   4    -33.8039967 -0.217899E-05  0.259E-03    2.89       8.9  T
   5    -33.8039968 -0.685606E-07  0.941E-04    2.89      24.4  T
   6    -33.8039968 -0.628205E-08  0.509E-04    2.89      45.1  T
     SCC iter.                  ...        0 min,  0.005 sec
     gradient                   ...        0 min,  0.003 sec
 * total energy  :   -33.3809189 Eh     change       -0.7592114E-04 Eh
   gradient norm :     0.0062897 Eh/α   predicted    -0.9609826E-04 (  26.58%)
   displ. norm   :     0.1507103 α      lambda       -0.1028618E-03
   maximum displ.:     0.1267681 α      in ANC's #2, #1, #3, ...

........................................................................
.............................. CYCLE   10 ..............................
........................................................................
   1    -33.8018806 -0.338019E+02  0.456E-02    2.89       0.0  T
   2    -33.8018814 -0.746671E-06  0.269E-02    2.89       1.0  T
   3    -33.8018813  0.138308E-06  0.546E-03    2.89       4.2  T
   4    -33.8018815 -0.244467E-06  0.182E-03    2.89      12.6  T
   5    -33.8018815 -0.229068E-07  0.719E-04    2.89      31.9  T
   6    -33.8018815 -0.183476E-09  0.204E-04    2.89     112.6  T
     SCC iter.                  ...        0 min,  0.005 sec
     gradient                   ...        0 min,  0.003 sec
 * total energy  :   -33.3809553 Eh     change       -0.3646866E-04 Eh
   gradient norm :     0.0051812 Eh/α   predicted    -0.5260279E-04 (  44.24%)
   displ. norm   :     0.0536091 α      lambda       -0.5069152E-04
   maximum displ.:     0.0362491 α      in ANC's #2, #4, #1, ...

........................................................................
.............................. CYCLE   11 ..............................
........................................................................
   1    -33.8030853 -0.338031E+02  0.208E-02    2.89       0.0  T
   2    -33.8030858 -0.467526E-06  0.121E-02    2.89       1.9  T
   3    -33.8030856  0.182375E-06  0.465E-03    2.89       4.9  T
   4    -33.8030858 -0.228704E-06  0.132E-03    2.89      17.4  T
   5    -33.8030858 -0.288746E-07  0.377E-04    2.89      60.8  T
   6    -33.8030858 -0.192358E-09  0.187E-04    2.89     122.7  T
     SCC iter.                  ...        0 min,  0.005 sec
     gradient                   ...        0 min,  0.003 sec
 * total energy  :   -33.3809832 Eh     change       -0.2782048E-04 Eh
   gradient norm :     0.0016762 Eh/α   predicted    -0.2541991E-04 (  -8.63%)
   displ. norm   :     0.0488138 α      lambda       -0.1178745E-04
   maximum displ.:     0.0409116 α      in ANC's #2, #3, #26, ...

........................................................................
.............................. CYCLE   12 ..............................
........................................................................
   1    -33.8034020 -0.338034E+02  0.185E-02    2.89       0.0  T
   2    -33.8034022 -0.124667E-06  0.110E-02    2.89       2.1  T
   3    -33.8034021  0.102875E-06  0.288E-03    2.89       8.0  T
   4    -33.8034022 -0.126189E-06  0.632E-04    2.89      36.3  T
   5    -33.8034022 -0.562149E-08  0.269E-04    2.89      85.2  T
     SCC iter.                  ...        0 min,  0.004 sec
     gradient                   ...        0 min,  0.003 sec
 * total energy  :   -33.3809931 Eh     change       -0.9972079E-05 Eh
   gradient norm :     0.0011697 Eh/α   predicted    -0.5907563E-05 ( -40.76%)
   displ. norm   :     0.0471060 α      lambda       -0.5118356E-05
   maximum displ.:     0.0410752 α      in ANC's #2, #3, #26, ...

........................................................................
.............................. CYCLE   13 ..............................
........................................................................
   1    -33.8032933 -0.338033E+02  0.165E-02    2.89       0.0  T
   2    -33.8032934 -0.332179E-07  0.984E-03    2.89       2.3  T
   3    -33.8032933  0.347910E-07  0.156E-03    2.89      14.7  T
   4    -33.8032934 -0.458625E-07  0.375E-04    2.89      61.2  T
   5    -33.8032934 -0.795076E-09  0.190E-04    2.89     120.8  T
     SCC iter.                  ...        0 min,  0.008 sec
     gradient                   ...        0 min,  0.002 sec
 * total energy  :   -33.3809967 Eh     change       -0.3565526E-05 Eh
   gradient norm :     0.0010018 Eh/α   predicted    -0.2562370E-05 ( -28.13%)
   displ. norm   :     0.0197834 α      lambda       -0.2590947E-05
   maximum displ.:     0.0142405 α      in ANC's #2, #5, #4, ...

........................................................................
.............................. CYCLE   14 ..............................
........................................................................
   1    -33.8033360 -0.338033E+02  0.127E-02    2.89       0.0  T
   2    -33.8033361 -0.237105E-07  0.756E-03    2.89       3.0  T
   3    -33.8033360  0.492947E-07  0.182E-03    2.89      12.6  T
   4    -33.8033361 -0.601956E-07  0.309E-04    2.89      74.3  T
   5    -33.8033361 -0.444096E-09  0.166E-04    2.89     138.2  T
     SCC iter.                  ...        0 min,  0.004 sec
     gradient                   ...        0 min,  0.003 sec
 * total energy  :   -33.3809985 Eh     change       -0.1815254E-05 Eh
   gradient norm :     0.0005839 Eh/α   predicted    -0.1298084E-05 ( -28.49%)
   displ. norm   :     0.0130506 α      lambda        0.2285397E-06
   maximum displ.:     0.0099836 α      in ANC's #2, #4, #5, ...

   *** GEOMETRY OPTIMIZATION CONVERGED AFTER 14 ITERATIONS ***

------------------------------------------------------------------------
 total energy gain   :        -0.0177400 Eh      -11.1320 kcal/mol
 total RMSD          :         0.3335780 a0        0.1765 Å
 total power (kW/mol):        -3.3268885 (step) -324.6279 (real)
------------------------------------------------------------------------

 ANCopt (total)                0 d,  0 h,  0 min,  0.143 sec
 optimizer setup                ...        0 min,  0.000 sec (  0.041%)
 model hessian                  ...        0 min,  0.002 sec (  1.561%)
 ANC generation                 ...        0 min,  0.000 sec (  0.293%)
 coordinate transformation      ...        0 min,  0.000 sec (  0.091%)
 single point calculation       ...        0 min,  0.137 sec ( 95.595%)
 optimization log               ...        0 min,  0.001 sec (  0.943%)
 hessian update                 ...        0 min,  0.000 sec (  0.096%)
 rational function              ...        0 min,  0.001 sec (  0.921%)

================
 final structure:
================
19
 xtb: 6.4.1 (23d549d)
O        -3.60653029814115    1.61941729269052   -0.45953936102142
C        -2.40215833442002    1.66624115590511   -0.40967600286297
C        -1.51505720100396    0.53222434412266   -0.16008914866141
C        -2.04570978125846   -0.73833946634959    0.05426553596089
C        -1.21252011528736   -1.81156581001396    0.29146618835440
C         0.16372861295368   -1.63152951461834    0.31718714433442
O         0.97726566805145   -2.68212236893468    0.54964743955127
C         0.70937645613888   -0.34814520235143    0.09948302985879
O         2.08222504030332   -0.30250751124712    0.14865729519856
C         2.71290919805406    0.93542933833941   -0.07258453502411
C        -0.12818283431447    0.72061846421997   -0.13606369061573
H        -1.86715526428051    2.62701893893834   -0.55859550173003
H        -3.11724800530526   -0.86033697466821    0.03046220054605
H        -1.60130236365721   -2.80262126739075    0.46011532611686
H         1.89384447780719   -2.37056725147840    0.53050959950589
H         2.48674199104460    1.32450699703029   -1.06948158654416
H         2.42213956805714    1.67158685709059    0.68282746442117
H         3.78125349834672    0.73982753816773    0.00599437826538
H         0.26638968691136    1.71087444054794   -0.30458577565391

 Bond Distances (Angstroems)
 ---------------------------
O1-C2=1.2063         C2-O1=1.2063         C2-C3=1.4612         C2-H12=1.1097        C3-C2=1.4612         C3-C4=1.3935         
C3-C11=1.3998        C4-C3=1.3935         C4-C5=1.3792         C4-H13=1.0787        C5-C4=1.3792         C5-C6=1.3882         
C5-H14=1.0779        C6-C5=1.3882         C6-O7=1.3489         C6-C8=1.4115         O7-C6=1.3489         O7-H15=0.9683        
C8-C6=1.4115         C8-O9=1.3745         C8-C11=1.3781        O9-C8=1.3745         O9-C10=1.4068        C10-O9=1.4068        
C10-H16=1.0938       C10-H17=1.0941       C10-H18=1.0889       C11-C3=1.3998        C11-C8=1.3781        C11-H19=1.0792       
H12-C2=1.1097        H13-C4=1.0787        H14-C5=1.0779        H15-O7=0.9683        H16-C10=1.0938       H17-C10=1.0941       
H18-C10=1.0889       H19-C11=1.0792       
 C  H  Rav=1.0889 sigma=0.0107  Rmin=1.0779  Rmax=1.1097     7
 C  C  Rav=1.4017 sigma=0.0266  Rmin=1.3781  Rmax=1.4612     7
 O  H  Rav=0.9683 sigma=0.0000  Rmin=0.9683  Rmax=0.9683     1
 O  C  Rav=1.3341 sigma=0.0766  Rmin=1.2063  Rmax=1.4068     4

 selected bond angles (degree)
 --------------------
C3-C2-O1=125.67                H12-C2-O1=120.62               H12-C2-C3=113.71               C4-C3-C2=120.18                
C11-C3-C2=120.00               C11-C3-C4=119.82               C5-C4-C3=120.39                H13-C4-C3=118.55               
H13-C4-C5=121.06               C6-C5-C4=120.08                H14-C5-C4=121.63               H14-C5-C6=118.29               
O7-C6-C5=120.01                C8-C6-C5=119.89                C8-C6-O7=120.11                H15-O7-C6=108.48               
O9-C8-C6=114.25                C11-C8-C6=119.77               C11-C8-O9=125.97               C10-O9-C8=118.12               
H16-C10-O9=111.32              H17-C10-O9=111.37              H17-C10-H16=109.57             H18-C10-O9=105.69              
H18-C10-H16=109.42             H18-C10-H17=109.38             

 selected dihedral angles (degree)
 ---------------------------------
C4-C3-C2-O1=359.60            C4-C3-C2-H12=179.59           C11-C3-C2-O1=179.59           C11-C3-C2-H12=359.58          
C5-C4-C3-C2=180.06            C5-C4-C3-C11=  0.07           H13-C4-C3-C2=  0.04           H13-C4-C3-C11=180.05          
C6-C5-C4-C3=359.96            C6-C5-C4-H13=179.98           H14-C5-C4-C3=179.98           H14-C5-C4-H13=  0.00          
O7-C6-C5-C4=179.98            O7-C6-C5-H14=359.96           C8-C6-C5-C4=359.97            C8-C6-C5-H14=179.95           
H15-O7-C6-C5=179.98           H15-O7-C6-C8=  0.00           O9-C8-C6-C5=180.08            O9-C8-C6-O7=  0.06            
C11-C8-C6-C5=  0.08           C11-C8-C6-O7=180.06           C10-O9-C8-C6=179.29           C10-O9-C8-C11=359.29          
H16-C10-O9-C8=299.03          H17-C10-O9-C8= 61.64          H18-C10-O9-C8=180.32          
           -------------------------------------------------
          |                Final Singlepoint                |
           -------------------------------------------------

          ...................................................
          :                      SETUP                      :
          :.................................................:
          :  # basis functions                  52          :
          :  # atomic orbitals                  52          :
          :  # shells                           30          :
          :  # electrons                        58          :
          :  max. iterations                   250          :
          :  Hamiltonian                  GFN2-xTB          :
          :  restarted?                      false          :
          :  GBSA solvation                  false          :
          :  PC potential                    false          :
          :  electronic temp.          300.0000000     K    :
          :  accuracy                    1.0000000          :
          :  -> integral cutoff          0.2500000E+02      :
          :  -> integral neglect         0.1000000E-07      :
          :  -> SCF convergence          0.1000000E-05 Eh   :
          :  -> wf. convergence          0.1000000E-03 e    :
          :  Broyden damping             0.4000000          :
          ...................................................

 iter      E             dE          RMSdq      gap      omega  full diag
   1    -33.8033361 -0.338033E+02  0.813E-05    2.89       0.0  T
   2    -33.8033361 -0.186020E-10  0.551E-05    2.89     416.4  T
   3    -33.8033361 -0.125269E-10  0.367E-05    2.89     625.2  T

   *** convergence criteria satisfied after 3 iterations ***

         #    Occupation            Energy/Eh            Energy/eV
      -------------------------------------------------------------
         1        2.0000           -0.7418115             -20.1857
       ...           ...                  ...                  ...
        23        2.0000           -0.4855979             -13.2138
        24        2.0000           -0.4662241             -12.6866
        25        2.0000           -0.4641057             -12.6290
        26        2.0000           -0.4455992             -12.1254
        27        2.0000           -0.4164022             -11.3309
        28        2.0000           -0.3958477             -10.7716
        29        2.0000           -0.3916915             -10.6585 (HOMO)
        30                         -0.2854763              -7.7682 (LUMO)
        31                         -0.2353532              -6.4043
        32                         -0.1949021              -5.3036
        33                         -0.0950106              -2.5854
        34                         -0.0061489              -0.1673
       ...                                ...                  ...
        52                          0.6746038              18.3569
      -------------------------------------------------------------
                  HL-Gap            0.1062152 Eh            2.8903 eV
             Fermi-level           -0.3385839 Eh           -9.2133 eV

 SCC (total)                   0 d,  0 h,  0 min,  0.006 sec
 SCC setup                      ...        0 min,  0.000 sec (  1.196%)
 Dispersion                     ...        0 min,  0.000 sec (  0.940%)
 classical contributions        ...        0 min,  0.000 sec (  0.242%)
 integral evaluation            ...        0 min,  0.001 sec ( 14.685%)
 iterations                     ...        0 min,  0.003 sec ( 40.016%)
 molecular gradient             ...        0 min,  0.003 sec ( 41.311%)
 printout                       ...        0 min,  0.000 sec (  1.485%)

         :::::::::::::::::::::::::::::::::::::::::::::::::::::
         ::                     SUMMARY                     ::
         :::::::::::::::::::::::::::::::::::::::::::::::::::::
         :: total energy             -33.380998510609 Eh    ::
         :: gradient norm              0.000583853419 Eh/a0 ::
         :: HOMO-LUMO gap              2.890262644100 eV    ::
         ::.................................................::
         :: SCC energy               -33.803336077167 Eh    ::
         :: -> isotropic ES            0.054856668794 Eh    ::
         :: -> anisotropic ES          0.001968835127 Eh    ::
         :: -> anisotropic XC          0.005762199348 Eh    ::
         :: -> dispersion             -0.015607703778 Eh    ::
         :: repulsion energy           0.422297816483 Eh    ::
         :: add. restraining           0.000000000000 Eh    ::
         :: total charge              -0.000000000000 e     ::
         :::::::::::::::::::::::::::::::::::::::::::::::::::::

           -------------------------------------------------
          |                Property Printout                |
           -------------------------------------------------

    * Orbital Energies and Occupations

         #    Occupation            Energy/Eh            Energy/eV
      -------------------------------------------------------------
         1        2.0000           -0.7418115             -20.1857
       ...           ...                  ...                  ...
        17        2.0000           -0.5398399             -14.6898
        18        2.0000           -0.5290311             -14.3957
        19        2.0000           -0.5144443             -13.9987
        20        2.0000           -0.5071768             -13.8010
        21        2.0000           -0.4915358             -13.3754
        22        2.0000           -0.4885614             -13.2944
        23        2.0000           -0.4855979             -13.2138
        24        2.0000           -0.4662241             -12.6866
        25        2.0000           -0.4641057             -12.6290
        26        2.0000           -0.4455992             -12.1254
        27        2.0000           -0.4164022             -11.3309
        28        2.0000           -0.3958477             -10.7716
        29        2.0000           -0.3916915             -10.6585 (HOMO)
        30                         -0.2854763              -7.7682 (LUMO)
        31                         -0.2353532              -6.4043
        32                         -0.1949021              -5.3036
        33                         -0.0950106              -2.5854
        34                         -0.0061489              -0.1673
        35                          0.0670377               1.8242
        36                          0.0922971               2.5115
        37                          0.1027204               2.7952
        38                          0.1087814               2.9601
        39                          0.1483990               4.0381
        40                          0.1595882               4.3426
       ...                                ...                  ...
        52                          0.6746038              18.3569
      -------------------------------------------------------------
                  HL-Gap            0.1062152 Eh            2.8903 eV
             Fermi-level           -0.3385839 Eh           -9.2133 eV

     #   Z          covCN         q      C6AA      α(0)
     1   8 O        0.856    -0.342    20.553     6.078
     2   6 C        2.767     0.206    23.617     7.959
     3   6 C        2.971    -0.025    28.612     8.774
     4   6 C        2.923    -0.025    28.629     8.775
     5   6 C        2.915    -0.055    29.371     8.887
     6   6 C        2.847     0.138    24.980     8.191
     7   8 O        1.660    -0.367    20.217     6.070
     8   6 C        2.861     0.109    25.594     8.292
     9   8 O        1.705    -0.285    18.727     5.843
    10   6 C        3.643     0.037    20.286     6.475
    11   6 C        2.919    -0.065    29.628     8.926
    12   1 H        0.922     0.008     2.928     2.676
    13   1 H        0.926     0.073     2.048     2.238
    14   1 H        0.926     0.068     2.108     2.271
    15   1 H        0.805     0.324     0.652     1.269
    16   1 H        0.924     0.044     2.393     2.419
    17   1 H        0.924     0.044     2.394     2.420
    18   1 H        0.925     0.064     2.155     2.296
    19   1 H        0.926     0.047     2.355     2.400

 Mol. C6AA /au·bohr⁶  :       4311.243858
 Mol. C8AA /au·bohr⁸  :     102128.430234
 Mol. α(0) /au        :        102.257579


Wiberg/Mayer (AO) data.
largest (>0.10) Wiberg bond orders for each atom

 ---------------------------------------------------------------------------
     #   Z sym  total        # sym  WBO       # sym  WBO       # sym  WBO
 ---------------------------------------------------------------------------
     1   8 O    2.067 --     2 C    1.852
     2   6 C    3.927 --     1 O    1.852     3 C    1.077    12 H    0.930
     3   6 C    3.988 --     4 C    1.371    11 C    1.336     2 C    1.077
     4   6 C    3.988 --     5 C    1.456     3 C    1.371    13 H    0.964
     5   6 C    3.986 --     4 C    1.456     6 C    1.377    14 H    0.965
     6   6 C    3.946 --     5 C    1.377     8 C    1.264     7 O    1.110
     7   8 O    2.149 --     6 C    1.110    15 H    0.869
     8   6 C    3.934 --    11 C    1.439     6 C    1.264     9 O    1.038
     9   8 O    2.209 --     8 C    1.038    10 C    0.981
    10   6 C    3.942 --     9 O    0.981    18 H    0.979    16 H    0.977
                            17 H    0.977
    11   6 C    3.989 --     8 C    1.439     3 C    1.336    19 H    0.962
    12   1 H    0.999 --     2 C    0.930
    13   1 H    0.995 --     4 C    0.964
    14   1 H    0.994 --     5 C    0.965
    15   1 H    0.895 --     7 O    0.869
    16   1 H    0.998 --    10 C    0.977
    17   1 H    0.998 --    10 C    0.977
    18   1 H    0.995 --    10 C    0.979
    19   1 H    0.998 --    11 C    0.962
 ---------------------------------------------------------------------------

Topologies differ in total number of bonds
Writing topology from bond orders to xtbtopo.mol

molecular dipole:
                 x           y           z       tot (Debye)
 q only:        1.669      -0.096       0.087
   full:        2.070       0.239       0.041       5.296
molecular quadrupole (traceless):
                xx          xy          yy          xz          yz          zz
 q only:       -4.484       9.327       2.214      -2.121       0.443       2.270
  q+dip:       -5.655      10.458       3.351      -2.388       0.320       2.304
   full:       -6.685      10.485       2.019      -2.558       1.020       4.666

           -------------------------------------------------
          |                Geometry Summary                 |
           -------------------------------------------------

      molecular mass/u    :      152.1476280
   center of mass at/Å    :       -0.3227461      -0.1833361       0.0223682
  moments of inertia/u·Å² :        0.2665185E+03   0.6495678E+03   0.9128600E+03
rotational constants/cm⁻¹ :        0.6325127E-01   0.2595207E-01   0.1846683E-01

 * 17 selected distances

     #   Z          #   Z                                           value/Å
     1   8 O        2   6 C                                       1.2063128
     3   6 C        4   6 C                                       1.3935108
     4   6 C        5   6 C                                       1.3792331
     5   6 C        6   6 C                                       1.3882130
     6   6 C        7   8 O                                       1.3489350
     6   6 C        8   6 C                                       1.4114538 (max)
     8   6 C        9   8 O                                       1.3744869
     9   8 O       10   6 C                                       1.4068398
     3   6 C       11   6 C                                       1.3998179
     8   6 C       11   6 C                                       1.3781305
     4   6 C       13   1 H                                       1.0787234
     5   6 C       14   1 H                                       1.0778613
     7   8 O       15   1 H                                       0.9682714 (min)
    10   6 C       16   1 H                                       1.0937718
    10   6 C       17   1 H                                       1.0941308
    10   6 C       18   1 H                                       1.0889418
    11   6 C       19   1 H                                       1.0792099

 * 4 distinct bonds (by element types)

   Z      Z             #   av. dist./Å        max./Å        min./Å
   1 H    6 C           6     1.0854398     1.0941308     1.0778613
   6 C    6 C           6     1.3917265     1.4114538     1.3781305
   1 H    8 O           1     0.9682714     0.9682714     0.9682714
   6 C    8 O           4     1.3341436     1.4068398     1.2063128


optimized geometry written to: xtbopt.xyz


           -------------------------------------------------
          | TOTAL ENERGY              -33.380998510609 Eh   |
          | GRADIENT NORM               0.000583853419 Eh/α |
          | HOMO-LUMO GAP               2.890262644100 eV   |
           -------------------------------------------------

------------------------------------------------------------------------
 * finished run on 2022/02/09 at 17:30:04.858     
------------------------------------------------------------------------
 total:
 * wall-time:     0 d,  0 h,  0 min,  0.172 sec
 *  cpu-time:     0 d,  0 h,  0 min,  1.195 sec
 * ratio c/w:     6.933 speedup
 SCF:
 * wall-time:     0 d,  0 h,  0 min,  0.015 sec
 *  cpu-time:     0 d,  0 h,  0 min,  0.086 sec
 * ratio c/w:     5.569 speedup
 ANC optimizer:
 * wall-time:     0 d,  0 h,  0 min,  0.151 sec
 *  cpu-time:     0 d,  0 h,  0 min,  1.047 sec
 * ratio c/w:     6.953 speedup

