17
 energy: -16.829433010984 gnorm: 0.000919259283 xtb: 6.4.1 (23d549d)
C        -2.50060151095481    0.40603181643689   -0.24229659079450
C        -1.29412459215292   -0.48870559480654    0.01423601827786
C         0.01517599209533    0.29438576249079   -0.03710966020044
C         1.23381371028331   -0.60328127735356    0.16324940642729
C         2.53434924402995    0.19061425325270    0.13874556080321
H        -2.44025522326918    0.85257581747029   -1.23182924139579
H        -2.54373300186837    1.20906324306247    0.49024402573421
H        -3.42325009266036   -0.16620591390664   -0.18062077276100
H        -1.39410281254354   -0.96044434358364    0.99404224479559
H        -1.26806458669204   -1.28406719352697   -0.73456785378788
H         0.00404344131084    1.06538958032157    0.73700188200886
H         0.09573225878891    0.79820564514273   -1.00321804312488
H         1.25640092469191   -1.35979620092217   -0.62489926907529
H         1.14514056502028   -1.12510105875409    1.11902967861070
H         2.64251362467669    0.71630726886246   -0.80732873363753
H         3.38885768432383   -0.47024431063167    0.26452279185089
H         2.54808437492008    0.92529250644532    0.94079855626866
